<?xml version="1.0" encoding="UTF-8"?>

<!-- generated on 06/14/21 23:31:44 by Eclipse SUMO GUI Version 1.8.0
<configuration xmlns:xsi="http://www.w3.org/2001/XMLSchema-instance" xsi:noNamespaceSchemaLocation="http://sumo.dlr.de/xsd/sumoConfiguration.xsd">

    <input>
        <net-file value="F:\software%20two\sumo-1.8.0/file3/beihong2.net.xml"/>
        <route-files value="F:\software%20two\sumo-1.8.0/file3/beihong2_routes.rou.xml"/>
    </input>

    <output>
        <tripinfo-output value="F:\software%20two\sumo-1.8.0/file3/tripinfo2.xml"/>
    </output>

    <time>
        <begin value="0"/>
        <end value="2000"/>
    </time>

    <report>
        <verbose value="true"/>
        <duration-log.statistics value="true"/>
    </report>

    <traci_server>
        <remote-port value="51274"/>
    </traci_server>

    <gui_only>
        <gui-settings-file value="F:\software%20two\sumo-1.8.0/file3/gui-settings.cfg"/>
        <quit-on-end value="true"/>
        <start value="true"/>
    </gui_only>

</configuration>
-->

<tripinfos xmlns:xsi="http://www.w3.org/2001/XMLSchema-instance" xsi:noNamespaceSchemaLocation="http://sumo.dlr.de/xsd/tripinfo_file.xsd">
    <tripinfo id="a2.0" depart="0.00" departLane="A2_0" departPos="4.60" departSpeed="0.00" departDelay="0.00" arrival="22.00" arrivalLane="C1_0" arrivalPos="30.68" arrivalSpeed="13.83" duration="22.00" routeLength="304.38" waitingTime="0.00" waitingCount="0" stopTime="0.00" timeLoss="4.06" rerouteNo="0" devices="tripinfo_a2.0" vType="myType" speedFactor="1.01" vaporized=""/>
    <tripinfo id="a1.0" depart="0.00" departLane="A1_1" departPos="4.60" departSpeed="0.00" departDelay="0.00" arrival="26.00" arrivalLane="C1_1" arrivalPos="30.68" arrivalSpeed="13.21" duration="26.00" routeLength="306.51" waitingTime="0.00" waitingCount="0" stopTime="0.00" timeLoss="4.11" rerouteNo="0" devices="tripinfo_a1.0" vType="myType" speedFactor="1.03" vaporized=""/>
    <tripinfo id="a1_1.0" depart="0.00" departLane="A1_0" departPos="4.60" departSpeed="0.00" departDelay="0.00" arrival="26.00" arrivalLane="C2_1" arrivalPos="34.97" arrivalSpeed="12.98" duration="26.00" routeLength="310.43" waitingTime="0.00" waitingCount="0" stopTime="0.00" timeLoss="6.71" rerouteNo="0" devices="tripinfo_a1_1.0" vType="myType" speedFactor="0.97" vaporized=""/>
    <tripinfo id="a2.1" depart="2.00" departLane="A2_0" departPos="4.60" departSpeed="0.00" departDelay="0.20" arrival="28.00" arrivalLane="C1_0" arrivalPos="30.68" arrivalSpeed="14.00" duration="26.00" routeLength="304.38" waitingTime="0.00" waitingCount="0" stopTime="0.00" timeLoss="8.38" rerouteNo="0" devices="tripinfo_a2.1" vType="myType" speedFactor="1.07" vaporized=""/>
    <tripinfo id="b1_1.0" depart="3.00" departLane="B_0" departPos="4.60" departSpeed="0.00" departDelay="3.00" arrival="29.00" arrivalLane="C2_0" arrivalPos="34.97" arrivalSpeed="14.08" duration="26.00" routeLength="299.56" waitingTime="0.00" waitingCount="0" stopTime="0.00" timeLoss="7.94" rerouteNo="0" devices="tripinfo_b1_1.0" vType="myType" speedFactor="1.02" vaporized=""/>
    <tripinfo id="b1.0" depart="0.00" departLane="B_0" departPos="4.60" departSpeed="0.00" departDelay="0.00" arrival="30.00" arrivalLane="C1_0" arrivalPos="30.68" arrivalSpeed="14.13" duration="30.00" routeLength="296.66" waitingTime="2.00" waitingCount="1" stopTime="0.00" timeLoss="12.60" rerouteNo="0" devices="tripinfo_b1.0" vType="myType" speedFactor="1.04" vaporized=""/>
    <tripinfo id="a1.1" depart="2.00" departLane="A1_1" departPos="4.60" departSpeed="0.00" departDelay="1.00" arrival="31.00" arrivalLane="C1_1" arrivalPos="30.68" arrivalSpeed="12.67" duration="29.00" routeLength="306.51" waitingTime="0.00" waitingCount="0" stopTime="0.00" timeLoss="4.64" rerouteNo="0" devices="tripinfo_a1.1" vType="myType" speedFactor="0.92" vaporized=""/>
    <tripinfo id="a1_1.1" depart="2.00" departLane="A1_0" departPos="4.60" departSpeed="0.00" departDelay="0.80" arrival="32.00" arrivalLane="C2_1" arrivalPos="34.97" arrivalSpeed="12.56" duration="30.00" routeLength="310.43" waitingTime="0.00" waitingCount="0" stopTime="0.00" timeLoss="10.84" rerouteNo="0" devices="tripinfo_a1_1.1" vType="myType" speedFactor="0.97" vaporized=""/>
    <tripinfo id="a1.2" depart="5.00" departLane="A1_1" departPos="4.60" departSpeed="0.00" departDelay="3.00" arrival="33.00" arrivalLane="C1_1" arrivalPos="30.68" arrivalSpeed="13.13" duration="28.00" routeLength="306.51" waitingTime="0.00" waitingCount="0" stopTime="0.00" timeLoss="4.75" rerouteNo="0" devices="tripinfo_a1.2" vType="myType" speedFactor="0.96" vaporized=""/>
    <tripinfo id="a2.2" depart="5.00" departLane="A2_0" departPos="4.60" departSpeed="0.00" departDelay="1.40" arrival="33.00" arrivalLane="C1_0" arrivalPos="30.68" arrivalSpeed="13.89" duration="28.00" routeLength="304.38" waitingTime="0.00" waitingCount="0" stopTime="0.00" timeLoss="9.44" rerouteNo="0" devices="tripinfo_a2.2" vType="myType" speedFactor="1.03" vaporized=""/>
    <tripinfo id="b1.1" depart="6.00" departLane="B_0" departPos="4.60" departSpeed="0.00" departDelay="5.90" arrival="35.00" arrivalLane="C1_0" arrivalPos="30.68" arrivalSpeed="13.80" duration="29.00" routeLength="296.66" waitingTime="0.00" waitingCount="0" stopTime="0.00" timeLoss="11.60" rerouteNo="0" devices="tripinfo_b1.1" vType="myType" speedFactor="1.02" vaporized=""/>
    <tripinfo id="a1.3" depart="8.00" departLane="A1_1" departPos="4.60" departSpeed="0.00" departDelay="5.00" arrival="37.00" arrivalLane="C1_1" arrivalPos="30.68" arrivalSpeed="11.75" duration="29.00" routeLength="306.51" waitingTime="0.00" waitingCount="0" stopTime="0.00" timeLoss="4.45" rerouteNo="0" devices="tripinfo_a1.3" vType="myType" speedFactor="0.93" vaporized=""/>
    <tripinfo id="a2.4" depart="11.00" departLane="A2_0" departPos="4.60" departSpeed="0.00" departDelay="3.80" arrival="37.00" arrivalLane="C1_0" arrivalPos="30.68" arrivalSpeed="13.04" duration="26.00" routeLength="304.38" waitingTime="0.00" waitingCount="0" stopTime="0.00" timeLoss="7.75" rerouteNo="0" devices="tripinfo_a2.4" vType="myType" speedFactor="1.00" vaporized=""/>
    <tripinfo id="a1.4" depart="11.00" departLane="A1_1" departPos="4.60" departSpeed="0.00" departDelay="7.00" arrival="39.00" arrivalLane="C1_1" arrivalPos="30.68" arrivalSpeed="13.66" duration="28.00" routeLength="306.51" waitingTime="0.00" waitingCount="0" stopTime="0.00" timeLoss="4.78" rerouteNo="0" devices="tripinfo_a1.4" vType="myType" speedFactor="0.99" vaporized=""/>
    <tripinfo id="b1.2" depart="8.00" departLane="B_0" departPos="4.60" departSpeed="0.00" departDelay="7.80" arrival="40.00" arrivalLane="C1_0" arrivalPos="30.68" arrivalSpeed="13.02" duration="32.00" routeLength="296.66" waitingTime="0.00" waitingCount="0" stopTime="0.00" timeLoss="12.64" rerouteNo="0" devices="tripinfo_b1.2" vType="myType" speedFactor="0.94" vaporized=""/>
    <tripinfo id="a1.5" depart="14.00" departLane="A1_1" departPos="4.60" departSpeed="0.00" departDelay="9.00" arrival="41.00" arrivalLane="C1_1" arrivalPos="30.68" arrivalSpeed="14.00" duration="27.00" routeLength="306.51" waitingTime="0.00" waitingCount="0" stopTime="0.00" timeLoss="4.99" rerouteNo="0" devices="tripinfo_a1.5" vType="myType" speedFactor="1.05" vaporized=""/>
    <tripinfo id="b1.3" depart="11.00" departLane="B_0" departPos="4.60" departSpeed="0.00" departDelay="10.70" arrival="42.00" arrivalLane="C1_0" arrivalPos="30.68" arrivalSpeed="12.63" duration="31.00" routeLength="296.66" waitingTime="0.00" waitingCount="0" stopTime="0.00" timeLoss="12.17" rerouteNo="0" devices="tripinfo_b1.3" vType="myType" speedFactor="0.97" vaporized=""/>
    <tripinfo id="a1.6" depart="16.00" departLane="A1_1" departPos="4.60" departSpeed="0.00" departDelay="10.00" arrival="43.00" arrivalLane="C1_1" arrivalPos="30.68" arrivalSpeed="14.86" duration="27.00" routeLength="306.51" waitingTime="0.00" waitingCount="0" stopTime="0.00" timeLoss="5.77" rerouteNo="0" devices="tripinfo_a1.6" vType="myType" speedFactor="1.09" vaporized=""/>
    <tripinfo id="b1.4" depart="14.00" departLane="B_0" departPos="4.60" departSpeed="0.00" departDelay="13.60" arrival="44.00" arrivalLane="C1_0" arrivalPos="30.68" arrivalSpeed="11.60" duration="30.00" routeLength="296.66" waitingTime="0.00" waitingCount="0" stopTime="0.00" timeLoss="10.54" rerouteNo="0" devices="tripinfo_b1.4" vType="myType" speedFactor="0.93" vaporized=""/>
    <tripinfo id="a1_1.2" depart="5.00" departLane="A1_0" departPos="4.60" departSpeed="0.00" departDelay="2.60" arrival="44.00" arrivalLane="C2_1" arrivalPos="34.97" arrivalSpeed="12.41" duration="39.00" routeLength="310.43" waitingTime="0.00" waitingCount="0" stopTime="0.00" timeLoss="18.84" rerouteNo="0" devices="tripinfo_a1_1.2" vType="myType" speedFactor="0.93" vaporized=""/>
    <tripinfo id="a2.3" depart="8.00" departLane="A2_0" departPos="4.60" departSpeed="0.00" departDelay="2.60" arrival="45.00" arrivalLane="C1_0" arrivalPos="30.68" arrivalSpeed="13.02" duration="37.00" routeLength="304.38" waitingTime="0.00" waitingCount="0" stopTime="0.00" timeLoss="18.99" rerouteNo="0" devices="tripinfo_a2.3" vType="myType" speedFactor="1.00" vaporized=""/>
    <tripinfo id="a1.7" depart="19.00" departLane="A1_1" departPos="4.60" departSpeed="0.00" departDelay="12.00" arrival="46.00" arrivalLane="C1_1" arrivalPos="30.68" arrivalSpeed="12.58" duration="27.00" routeLength="306.51" waitingTime="0.00" waitingCount="0" stopTime="0.00" timeLoss="4.12" rerouteNo="0" devices="tripinfo_a1.7" vType="myType" speedFactor="0.98" vaporized=""/>
    <tripinfo id="b1.5" depart="17.00" departLane="B_0" departPos="4.60" departSpeed="0.00" departDelay="16.50" arrival="47.00" arrivalLane="C1_0" arrivalPos="30.68" arrivalSpeed="13.66" duration="30.00" routeLength="296.66" waitingTime="0.00" waitingCount="0" stopTime="0.00" timeLoss="12.93" rerouteNo="0" devices="tripinfo_b1.5" vType="myType" speedFactor="1.05" vaporized=""/>
    <tripinfo id="b1.6" depart="20.00" departLane="B_0" departPos="4.60" departSpeed="0.00" departDelay="19.40" arrival="49.00" arrivalLane="C1_0" arrivalPos="30.68" arrivalSpeed="13.75" duration="29.00" routeLength="296.66" waitingTime="0.00" waitingCount="0" stopTime="0.00" timeLoss="11.61" rerouteNo="0" devices="tripinfo_b1.6" vType="myType" speedFactor="1.01" vaporized=""/>
    <tripinfo id="a1.8" depart="22.00" departLane="A1_1" departPos="4.60" departSpeed="0.00" departDelay="14.00" arrival="50.00" arrivalLane="C1_1" arrivalPos="30.68" arrivalSpeed="12.46" duration="28.00" routeLength="306.51" waitingTime="0.00" waitingCount="0" stopTime="0.00" timeLoss="3.90" rerouteNo="0" devices="tripinfo_a1.8" vType="myType" speedFactor="0.94" vaporized=""/>
    <tripinfo id="b1.7" depart="23.00" departLane="B_0" departPos="4.60" departSpeed="0.00" departDelay="22.30" arrival="51.00" arrivalLane="C1_0" arrivalPos="30.68" arrivalSpeed="13.11" duration="28.00" routeLength="296.66" waitingTime="0.00" waitingCount="0" stopTime="0.00" timeLoss="10.77" rerouteNo="0" devices="tripinfo_b1.7" vType="myType" speedFactor="1.02" vaporized=""/>
    <tripinfo id="a1.9" depart="24.00" departLane="A1_1" departPos="4.60" departSpeed="0.00" departDelay="15.00" arrival="52.00" arrivalLane="C1_1" arrivalPos="30.68" arrivalSpeed="13.32" duration="28.00" routeLength="306.51" waitingTime="0.00" waitingCount="0" stopTime="0.00" timeLoss="6.09" rerouteNo="0" devices="tripinfo_a1.9" vType="myType" speedFactor="1.04" vaporized=""/>
    <tripinfo id="a2.5" depart="13.00" departLane="A2_0" departPos="4.60" departSpeed="0.00" departDelay="4.00" arrival="53.00" arrivalLane="C1_0" arrivalPos="30.68" arrivalSpeed="12.47" duration="40.00" routeLength="304.38" waitingTime="1.00" waitingCount="1" stopTime="0.00" timeLoss="21.23" rerouteNo="0" devices="tripinfo_a2.5" vType="myType" speedFactor="0.96" vaporized=""/>
    <tripinfo id="a1.10" depart="27.00" departLane="A1_1" departPos="4.60" departSpeed="0.00" departDelay="17.00" arrival="54.00" arrivalLane="C1_1" arrivalPos="30.68" arrivalSpeed="13.50" duration="27.00" routeLength="306.51" waitingTime="0.00" waitingCount="0" stopTime="0.00" timeLoss="4.62" rerouteNo="0" devices="tripinfo_a1.10" vType="myType" speedFactor="1.00" vaporized=""/>
    <tripinfo id="b1.8" depart="26.00" departLane="B_0" departPos="4.60" departSpeed="0.00" departDelay="25.20" arrival="55.00" arrivalLane="C1_0" arrivalPos="30.68" arrivalSpeed="14.64" duration="29.00" routeLength="296.66" waitingTime="0.00" waitingCount="0" stopTime="0.00" timeLoss="11.72" rerouteNo="0" devices="tripinfo_b1.8" vType="myType" speedFactor="1.06" vaporized=""/>
    <tripinfo id="a1.11" depart="30.00" departLane="A1_1" departPos="4.60" departSpeed="0.00" departDelay="19.00" arrival="56.00" arrivalLane="C1_1" arrivalPos="30.68" arrivalSpeed="14.03" duration="26.00" routeLength="306.51" waitingTime="0.00" waitingCount="0" stopTime="0.00" timeLoss="4.68" rerouteNo="0" devices="tripinfo_a1.11" vType="myType" speedFactor="1.05" vaporized=""/>
    <tripinfo id="b1.9" depart="29.00" departLane="B_0" departPos="4.60" departSpeed="0.00" departDelay="28.10" arrival="57.00" arrivalLane="C1_0" arrivalPos="30.68" arrivalSpeed="13.13" duration="28.00" routeLength="296.66" waitingTime="0.00" waitingCount="0" stopTime="0.00" timeLoss="9.93" rerouteNo="0" devices="tripinfo_b1.9" vType="myType" speedFactor="1.00" vaporized=""/>
    <tripinfo id="b1_1.1" depart="34.00" departLane="B_0" departPos="4.60" departSpeed="0.00" departDelay="33.90" arrival="59.00" arrivalLane="C2_0" arrivalPos="34.97" arrivalSpeed="11.84" duration="25.00" routeLength="299.56" waitingTime="0.00" waitingCount="0" stopTime="0.00" timeLoss="5.42" rerouteNo="0" devices="tripinfo_b1_1.1" vType="myType" speedFactor="0.94" vaporized=""/>
    <tripinfo id="a2.6" depart="16.00" departLane="A2_0" departPos="4.60" departSpeed="0.00" departDelay="5.20" arrival="59.00" arrivalLane="C1_0" arrivalPos="30.68" arrivalSpeed="13.54" duration="43.00" routeLength="304.38" waitingTime="0.00" waitingCount="0" stopTime="0.00" timeLoss="24.74" rerouteNo="0" devices="tripinfo_a2.6" vType="myType" speedFactor="1.02" vaporized=""/>
    <tripinfo id="a2.7" depart="19.00" departLane="A2_0" departPos="4.60" departSpeed="0.00" departDelay="6.40" arrival="59.00" arrivalLane="C1_1" arrivalPos="30.68" arrivalSpeed="12.47" duration="40.00" routeLength="304.38" waitingTime="1.00" waitingCount="1" stopTime="0.00" timeLoss="18.59" rerouteNo="0" devices="tripinfo_a2.7" vType="myType" speedFactor="0.93" vaporized=""/>
    <tripinfo id="a1_1.3" depart="8.00" departLane="A1_0" departPos="4.60" departSpeed="0.00" departDelay="4.40" arrival="60.00" arrivalLane="C2_0" arrivalPos="34.97" arrivalSpeed="13.40" duration="52.00" routeLength="309.41" waitingTime="1.00" waitingCount="1" stopTime="0.00" timeLoss="32.79" rerouteNo="0" devices="tripinfo_a1_1.3" vType="myType" speedFactor="0.97" vaporized=""/>
    <tripinfo id="b1.10" depart="32.00" departLane="B_0" departPos="4.60" departSpeed="0.00" departDelay="31.00" arrival="61.00" arrivalLane="C1_0" arrivalPos="30.68" arrivalSpeed="12.90" duration="29.00" routeLength="296.66" waitingTime="0.00" waitingCount="0" stopTime="0.00" timeLoss="10.43" rerouteNo="0" devices="tripinfo_b1.10" vType="myType" speedFactor="0.96" vaporized=""/>
    <tripinfo id="a1.12" depart="33.00" departLane="A1_1" departPos="4.60" departSpeed="0.00" departDelay="21.00" arrival="61.00" arrivalLane="C1_1" arrivalPos="30.68" arrivalSpeed="11.95" duration="28.00" routeLength="306.51" waitingTime="0.00" waitingCount="0" stopTime="0.00" timeLoss="4.24" rerouteNo="0" devices="tripinfo_a1.12" vType="myType" speedFactor="0.94" vaporized=""/>
    <tripinfo id="a1.13" depart="36.00" departLane="A1_1" departPos="4.60" departSpeed="0.00" departDelay="23.00" arrival="63.00" arrivalLane="C1_1" arrivalPos="30.68" arrivalSpeed="12.80" duration="27.00" routeLength="306.51" waitingTime="0.00" waitingCount="0" stopTime="0.00" timeLoss="4.45" rerouteNo="0" devices="tripinfo_a1.13" vType="myType" speedFactor="0.99" vaporized=""/>
    <tripinfo id="a2.8" depart="23.00" departLane="A2_0" departPos="4.60" departSpeed="0.00" departDelay="8.60" arrival="63.00" arrivalLane="C1_0" arrivalPos="30.68" arrivalSpeed="14.17" duration="40.00" routeLength="304.38" waitingTime="0.00" waitingCount="0" stopTime="0.00" timeLoss="21.95" rerouteNo="0" devices="tripinfo_a2.8" vType="myType" speedFactor="1.07" vaporized=""/>
    <tripinfo id="b1_1.2" depart="37.00" departLane="B_0" departPos="4.60" departSpeed="0.00" departDelay="36.80" arrival="65.00" arrivalLane="C2_0" arrivalPos="34.97" arrivalSpeed="13.35" duration="28.00" routeLength="299.56" waitingTime="1.00" waitingCount="1" stopTime="0.00" timeLoss="9.27" rerouteNo="0" devices="tripinfo_b1_1.2" vType="myType" speedFactor="0.97" vaporized=""/>
    <tripinfo id="a2.9" depart="26.00" departLane="A2_0" departPos="4.60" departSpeed="0.00" departDelay="9.80" arrival="65.00" arrivalLane="C1_0" arrivalPos="30.68" arrivalSpeed="13.50" duration="39.00" routeLength="304.38" waitingTime="0.00" waitingCount="0" stopTime="0.00" timeLoss="20.35" rerouteNo="0" devices="tripinfo_a2.9" vType="myType" speedFactor="1.00" vaporized=""/>
    <tripinfo id="a1.14" depart="38.00" departLane="A1_1" departPos="4.60" departSpeed="0.00" departDelay="24.00" arrival="66.00" arrivalLane="C1_1" arrivalPos="30.68" arrivalSpeed="12.67" duration="28.00" routeLength="306.51" waitingTime="0.00" waitingCount="0" stopTime="0.00" timeLoss="4.85" rerouteNo="0" devices="tripinfo_a1.14" vType="myType" speedFactor="0.98" vaporized=""/>
    <tripinfo id="b1_1.3" depart="40.00" departLane="B_0" departPos="4.60" departSpeed="0.00" departDelay="39.70" arrival="67.00" arrivalLane="C2_0" arrivalPos="34.97" arrivalSpeed="12.48" duration="27.00" routeLength="299.56" waitingTime="0.00" waitingCount="0" stopTime="0.00" timeLoss="8.45" rerouteNo="0" devices="tripinfo_b1_1.3" vType="myType" speedFactor="0.97" vaporized=""/>
    <tripinfo id="a2.10" depart="29.00" departLane="A2_0" departPos="4.60" departSpeed="0.00" departDelay="11.00" arrival="67.00" arrivalLane="C1_0" arrivalPos="30.68" arrivalSpeed="12.53" duration="38.00" routeLength="304.38" waitingTime="0.00" waitingCount="0" stopTime="0.00" timeLoss="18.54" rerouteNo="0" devices="tripinfo_a2.10" vType="myType" speedFactor="0.95" vaporized=""/>
    <tripinfo id="a1.15" depart="41.00" departLane="A1_1" departPos="4.60" departSpeed="0.00" departDelay="26.00" arrival="68.00" arrivalLane="C1_1" arrivalPos="30.68" arrivalSpeed="12.45" duration="27.00" routeLength="306.51" waitingTime="0.00" waitingCount="0" stopTime="0.00" timeLoss="4.14" rerouteNo="0" devices="tripinfo_a1.15" vType="myType" speedFactor="0.99" vaporized=""/>
    <tripinfo id="a1.16" depart="44.00" departLane="A1_1" departPos="4.60" departSpeed="0.00" departDelay="28.00" arrival="70.00" arrivalLane="C1_1" arrivalPos="30.68" arrivalSpeed="14.58" duration="26.00" routeLength="306.51" waitingTime="0.00" waitingCount="0" stopTime="0.00" timeLoss="4.37" rerouteNo="0" devices="tripinfo_a1.16" vType="myType" speedFactor="1.05" vaporized=""/>
    <tripinfo id="a2.11" depart="31.00" departLane="A2_0" departPos="4.60" departSpeed="0.00" departDelay="11.20" arrival="70.00" arrivalLane="C1_0" arrivalPos="30.68" arrivalSpeed="11.49" duration="39.00" routeLength="304.38" waitingTime="0.00" waitingCount="0" stopTime="0.00" timeLoss="18.68" rerouteNo="0" devices="tripinfo_a2.11" vType="myType" speedFactor="0.92" vaporized=""/>
    <tripinfo id="a1.17" depart="46.00" departLane="A1_1" departPos="4.60" departSpeed="0.00" departDelay="29.00" arrival="72.00" arrivalLane="C1_1" arrivalPos="30.68" arrivalSpeed="14.99" duration="26.00" routeLength="306.51" waitingTime="0.00" waitingCount="0" stopTime="0.00" timeLoss="5.23" rerouteNo="0" devices="tripinfo_a1.17" vType="myType" speedFactor="1.10" vaporized=""/>
    <tripinfo id="a2.12" depart="34.00" departLane="A2_0" departPos="4.60" departSpeed="0.00" departDelay="12.40" arrival="72.00" arrivalLane="C1_0" arrivalPos="30.68" arrivalSpeed="13.41" duration="38.00" routeLength="304.38" waitingTime="0.00" waitingCount="0" stopTime="0.00" timeLoss="18.97" rerouteNo="0" devices="tripinfo_a2.12" vType="myType" speedFactor="0.99" vaporized=""/>
    <tripinfo id="b1_1.4" depart="43.00" departLane="B_0" departPos="4.60" departSpeed="0.00" departDelay="42.60" arrival="73.00" arrivalLane="C2_0" arrivalPos="34.97" arrivalSpeed="14.70" duration="30.00" routeLength="299.56" waitingTime="1.00" waitingCount="1" stopTime="0.00" timeLoss="11.99" rerouteNo="0" devices="tripinfo_b1_1.4" vType="myType" speedFactor="1.08" vaporized=""/>
    <tripinfo id="a2.13" depart="37.00" departLane="A2_0" departPos="4.60" departSpeed="0.00" departDelay="13.60" arrival="73.00" arrivalLane="C1_0" arrivalPos="30.68" arrivalSpeed="14.48" duration="36.00" routeLength="304.38" waitingTime="0.00" waitingCount="0" stopTime="0.00" timeLoss="18.36" rerouteNo="0" devices="tripinfo_a2.13" vType="myType" speedFactor="1.06" vaporized=""/>
    <tripinfo id="b1_1.5" depart="45.00" departLane="B_0" departPos="4.60" departSpeed="0.00" departDelay="44.50" arrival="75.00" arrivalLane="C2_0" arrivalPos="34.97" arrivalSpeed="13.83" duration="30.00" routeLength="299.56" waitingTime="0.00" waitingCount="0" stopTime="0.00" timeLoss="11.86" rerouteNo="0" devices="tripinfo_b1_1.5" vType="myType" speedFactor="1.01" vaporized=""/>
    <tripinfo id="a2.14" depart="40.00" departLane="A2_0" departPos="4.60" departSpeed="0.00" departDelay="14.80" arrival="75.00" arrivalLane="C1_0" arrivalPos="30.68" arrivalSpeed="12.98" duration="35.00" routeLength="304.38" waitingTime="0.00" waitingCount="0" stopTime="0.00" timeLoss="16.83" rerouteNo="0" devices="tripinfo_a2.14" vType="myType" speedFactor="0.99" vaporized=""/>
    <tripinfo id="a1.18" depart="49.00" departLane="A1_1" departPos="4.60" departSpeed="0.00" departDelay="31.00" arrival="76.00" arrivalLane="C1_1" arrivalPos="30.68" arrivalSpeed="14.00" duration="27.00" routeLength="306.51" waitingTime="0.00" waitingCount="0" stopTime="0.00" timeLoss="4.71" rerouteNo="0" devices="tripinfo_a1.18" vType="myType" speedFactor="1.03" vaporized=""/>
    <tripinfo id="b1_1.6" depart="48.00" departLane="B_0" departPos="4.60" departSpeed="0.00" departDelay="47.40" arrival="77.00" arrivalLane="C2_0" arrivalPos="34.97" arrivalSpeed="13.55" duration="29.00" routeLength="299.56" waitingTime="0.00" waitingCount="0" stopTime="0.00" timeLoss="10.94" rerouteNo="0" devices="tripinfo_b1_1.6" vType="myType" speedFactor="1.01" vaporized=""/>
    <tripinfo id="a2.15" depart="43.00" departLane="A2_0" departPos="4.60" departSpeed="0.00" departDelay="16.00" arrival="77.00" arrivalLane="C1_0" arrivalPos="30.68" arrivalSpeed="12.99" duration="34.00" routeLength="304.38" waitingTime="0.00" waitingCount="0" stopTime="0.00" timeLoss="15.62" rerouteNo="0" devices="tripinfo_a2.15" vType="myType" speedFactor="0.97" vaporized=""/>
    <tripinfo id="a1.19" depart="52.00" departLane="A1_1" departPos="4.60" departSpeed="0.00" departDelay="33.00" arrival="78.00" arrivalLane="C1_1" arrivalPos="30.68" arrivalSpeed="12.86" duration="26.00" routeLength="306.51" waitingTime="0.00" waitingCount="0" stopTime="0.00" timeLoss="3.94" rerouteNo="0" devices="tripinfo_a1.19" vType="myType" speedFactor="1.01" vaporized=""/>
    <tripinfo id="a2.17" depart="48.00" departLane="A2_0" departPos="4.60" departSpeed="0.00" departDelay="17.40" arrival="79.00" arrivalLane="C1_0" arrivalPos="30.68" arrivalSpeed="13.05" duration="31.00" routeLength="304.38" waitingTime="0.00" waitingCount="0" stopTime="0.00" timeLoss="13.22" rerouteNo="0" devices="tripinfo_a2.17" vType="myType" speedFactor="1.01" vaporized=""/>
    <tripinfo id="a1.20" depart="55.00" departLane="A1_1" departPos="4.60" departSpeed="0.00" departDelay="35.00" arrival="80.00" arrivalLane="C1_1" arrivalPos="30.68" arrivalSpeed="15.25" duration="25.00" routeLength="306.51" waitingTime="0.00" waitingCount="0" stopTime="0.00" timeLoss="4.86" rerouteNo="0" devices="tripinfo_a1.20" vType="myType" speedFactor="1.11" vaporized=""/>
    <tripinfo id="b1_1.7" depart="51.00" departLane="B_0" departPos="4.60" departSpeed="0.00" departDelay="50.30" arrival="81.00" arrivalLane="C2_0" arrivalPos="34.97" arrivalSpeed="13.28" duration="30.00" routeLength="299.56" waitingTime="0.00" waitingCount="0" stopTime="0.00" timeLoss="11.24" rerouteNo="0" devices="tripinfo_b1_1.7" vType="myType" speedFactor="0.99" vaporized=""/>
    <tripinfo id="a2.18" depart="51.00" departLane="A2_0" departPos="4.60" departSpeed="0.00" departDelay="18.60" arrival="81.00" arrivalLane="C1_0" arrivalPos="30.68" arrivalSpeed="12.90" duration="30.00" routeLength="304.38" waitingTime="0.00" waitingCount="0" stopTime="0.00" timeLoss="10.83" rerouteNo="0" devices="tripinfo_a2.18" vType="myType" speedFactor="0.94" vaporized=""/>
    <tripinfo id="a1_1.4" depart="11.00" departLane="A1_0" departPos="4.60" departSpeed="0.00" departDelay="6.20" arrival="82.00" arrivalLane="C2_1" arrivalPos="34.97" arrivalSpeed="13.44" duration="71.00" routeLength="310.43" waitingTime="7.00" waitingCount="3" stopTime="0.00" timeLoss="52.85" rerouteNo="0" devices="tripinfo_a1_1.4" vType="myType" speedFactor="1.03" vaporized=""/>
    <tripinfo id="a2.16" depart="45.00" departLane="A2_0" departPos="4.60" departSpeed="0.00" departDelay="16.20" arrival="82.00" arrivalLane="C1_1" arrivalPos="30.68" arrivalSpeed="13.55" duration="37.00" routeLength="304.38" waitingTime="0.00" waitingCount="0" stopTime="0.00" timeLoss="17.20" rerouteNo="0" devices="tripinfo_a2.16" vType="myType" speedFactor="1.01" vaporized=""/>
    <tripinfo id="b1_1.8" depart="54.00" departLane="B_0" departPos="4.60" departSpeed="0.00" departDelay="53.20" arrival="83.00" arrivalLane="C2_0" arrivalPos="34.97" arrivalSpeed="12.74" duration="29.00" routeLength="299.56" waitingTime="0.00" waitingCount="0" stopTime="0.00" timeLoss="9.77" rerouteNo="0" devices="tripinfo_b1_1.8" vType="myType" speedFactor="0.94" vaporized=""/>
    <tripinfo id="a2.19" depart="54.00" departLane="A2_0" departPos="4.60" departSpeed="0.00" departDelay="19.80" arrival="84.00" arrivalLane="C1_0" arrivalPos="30.68" arrivalSpeed="14.47" duration="30.00" routeLength="304.38" waitingTime="0.00" waitingCount="0" stopTime="0.00" timeLoss="12.49" rerouteNo="0" devices="tripinfo_a2.19" vType="myType" speedFactor="1.07" vaporized=""/>
    <tripinfo id="a1.21" depart="57.00" departLane="A1_1" departPos="4.60" departSpeed="0.00" departDelay="36.00" arrival="85.00" arrivalLane="C1_1" arrivalPos="30.68" arrivalSpeed="12.96" duration="28.00" routeLength="306.51" waitingTime="0.00" waitingCount="0" stopTime="0.00" timeLoss="4.81" rerouteNo="0" devices="tripinfo_a1.21" vType="myType" speedFactor="0.99" vaporized=""/>
    <tripinfo id="b1_1.9" depart="56.00" departLane="B_0" departPos="4.60" departSpeed="0.00" departDelay="55.10" arrival="86.00" arrivalLane="C2_0" arrivalPos="34.97" arrivalSpeed="12.59" duration="30.00" routeLength="299.56" waitingTime="0.00" waitingCount="0" stopTime="0.00" timeLoss="9.93" rerouteNo="0" devices="tripinfo_b1_1.9" vType="myType" speedFactor="0.91" vaporized=""/>
    <tripinfo id="a1_1.5" depart="14.00" departLane="A1_0" departPos="4.60" departSpeed="0.00" departDelay="8.00" arrival="86.00" arrivalLane="C2_1" arrivalPos="34.97" arrivalSpeed="12.87" duration="72.00" routeLength="310.43" waitingTime="0.00" waitingCount="0" stopTime="0.00" timeLoss="52.81" rerouteNo="0" devices="tripinfo_a1_1.5" vType="myType" speedFactor="1.00" vaporized=""/>
    <tripinfo id="a1.22" depart="60.00" departLane="A1_1" departPos="4.60" departSpeed="0.00" departDelay="38.00" arrival="87.00" arrivalLane="C1_1" arrivalPos="30.68" arrivalSpeed="13.86" duration="27.00" routeLength="306.51" waitingTime="0.00" waitingCount="0" stopTime="0.00" timeLoss="4.75" rerouteNo="0" devices="tripinfo_a1.22" vType="myType" speedFactor="1.02" vaporized=""/>
    <tripinfo id="a2.20" depart="57.00" departLane="A2_0" departPos="4.60" departSpeed="0.00" departDelay="21.00" arrival="87.00" arrivalLane="C1_0" arrivalPos="30.68" arrivalSpeed="13.30" duration="30.00" routeLength="304.38" waitingTime="0.00" waitingCount="0" stopTime="0.00" timeLoss="11.62" rerouteNo="0" devices="tripinfo_a2.20" vType="myType" speedFactor="0.99" vaporized=""/>
    <tripinfo id="a2.22" depart="62.00" departLane="A2_0" departPos="4.60" departSpeed="0.00" departDelay="22.40" arrival="89.00" arrivalLane="C1_0" arrivalPos="30.68" arrivalSpeed="14.00" duration="27.00" routeLength="304.38" waitingTime="0.00" waitingCount="0" stopTime="0.00" timeLoss="9.26" rerouteNo="0" devices="tripinfo_a2.22" vType="myType" speedFactor="1.03" vaporized=""/>
    <tripinfo id="b1_1.10" depart="59.00" departLane="B_0" departPos="4.60" departSpeed="0.00" departDelay="58.00" arrival="91.00" arrivalLane="C2_0" arrivalPos="34.97" arrivalSpeed="11.80" duration="32.00" routeLength="299.56" waitingTime="0.00" waitingCount="0" stopTime="0.00" timeLoss="12.89" rerouteNo="0" devices="tripinfo_b1_1.10" vType="myType" speedFactor="0.94" vaporized=""/>
    <tripinfo id="a1.23" depart="63.00" departLane="A1_1" departPos="4.60" departSpeed="0.00" departDelay="40.00" arrival="91.00" arrivalLane="C1_1" arrivalPos="30.68" arrivalSpeed="13.33" duration="28.00" routeLength="306.51" waitingTime="0.00" waitingCount="0" stopTime="0.00" timeLoss="4.11" rerouteNo="0" devices="tripinfo_a1.23" vType="myType" speedFactor="0.96" vaporized=""/>
    <tripinfo id="a2.21" depart="59.00" departLane="A2_0" departPos="4.60" departSpeed="0.00" departDelay="21.20" arrival="91.00" arrivalLane="C1_0" arrivalPos="30.68" arrivalSpeed="13.89" duration="32.00" routeLength="304.38" waitingTime="0.00" waitingCount="0" stopTime="0.00" timeLoss="13.90" rerouteNo="0" devices="tripinfo_a2.21" vType="myType" speedFactor="1.01" vaporized=""/>