<?xml version="1.0" encoding="UTF-8"?>

<!-- generated on 2022-01-10 16:41:35 by Eclipse SUMO GUI Version 1.10.0
<configuration xmlns:xsi="http://www.w3.org/2001/XMLSchema-instance" xsi:noNamespaceSchemaLocation="http://sumo.dlr.de/xsd/sumoConfiguration.xsd">

    <input>
        <net-file value="Q-learning-control/test1.net.xml"/>
        <route-files value="Q-learning-control/routes.rou.xml"/>
    </input>

    <output>
        <tripinfo-output value="F:\大学\MTFwiki\SUMO-Q_learning\SUMO-RL-ramp-control\Q-learning-control/tripinfo2_TEST.xml"/>
    </output>

    <time>
        <begin value="0"/>
        <end value="2000"/>
    </time>

    <report>
        <verbose value="true"/>
        <duration-log.statistics value="true"/>
    </report>

    <traci_server>
        <remote-port value="56812"/>
    </traci_server>

    <gui_only>
        <gui-settings-file value="Q-learning-control/gui-settings.cfg"/>
        <quit-on-end value="true"/>
        <start value="true"/>
    </gui_only>

</configuration>
-->

<tripinfos xmlns:xsi="http://www.w3.org/2001/XMLSchema-instance" xsi:noNamespaceSchemaLocation="http://sumo.dlr.de/xsd/tripinfo_file.xsd">
    <tripinfo id="a1_1.0" depart="0.00" departLane="Z1_2" departPos="4.60" departSpeed="0.00" departDelay="0.00" arrival="17.00" arrivalLane="Z2_1" arrivalPos="62.97" arrivalSpeed="18.85" duration="17.00" routeLength="237.85" waitingTime="0.00" waitingCount="0" stopTime="0.00" timeLoss="5.09" rerouteNo="0" devices="tripinfo_a1_1.0" vType="myType" speedFactor="0.97" vaporized=""/>
    <tripinfo id="a1.0" depart="0.00" departLane="Z1_1" departPos="4.60" departSpeed="0.00" departDelay="0.00" arrival="18.00" arrivalLane="Z2_0" arrivalPos="62.97" arrivalSpeed="19.93" duration="18.00" routeLength="237.85" waitingTime="0.00" waitingCount="0" stopTime="0.00" timeLoss="5.16" rerouteNo="0" devices="tripinfo_a1.0" vType="myType" speedFactor="1.03" vaporized=""/>
    <tripinfo id="a2.0" depart="0.00" departLane="Z1_0" departPos="4.60" departSpeed="0.00" departDelay="0.00" arrival="18.00" arrivalLane="C2_1" arrivalPos="43.62" arrivalSpeed="13.81" duration="18.00" routeLength="218.50" waitingTime="0.00" waitingCount="0" stopTime="0.00" timeLoss="5.47" rerouteNo="0" devices="tripinfo_a2.0" vType="myType" speedFactor="1.01" vaporized=""/>
    <tripinfo id="b1.0" depart="0.00" departLane="C1_1" departPos="4.60" departSpeed="0.00" departDelay="0.00" arrival="20.00" arrivalLane="Z2_0" arrivalPos="62.97" arrivalSpeed="19.36" duration="20.00" routeLength="211.43" waitingTime="0.00" waitingCount="0" stopTime="0.00" timeLoss="5.41" rerouteNo="0" devices="tripinfo_b1.0" vType="myType" speedFactor="1.04" vaporized=""/>
    <tripinfo id="b2.0" depart="0.00" departLane="C1_0" departPos="4.60" departSpeed="0.00" departDelay="0.00" arrival="20.00" arrivalLane="C2_0" arrivalPos="43.62" arrivalSpeed="13.08" duration="20.00" routeLength="192.08" waitingTime="0.00" waitingCount="0" stopTime="0.00" timeLoss="5.12" rerouteNo="0" devices="tripinfo_b2.0" vType="myType" speedFactor="1.02" vaporized=""/>
    <tripinfo id="a1_1.1" depart="3.00" departLane="Z1_2" departPos="4.60" departSpeed="0.00" departDelay="2.10" arrival="20.00" arrivalLane="Z2_1" arrivalPos="62.97" arrivalSpeed="19.92" duration="17.00" routeLength="237.85" waitingTime="0.00" waitingCount="0" stopTime="0.00" timeLoss="4.46" rerouteNo="0" devices="tripinfo_a1_1.1" vType="myType" speedFactor="1.02" vaporized=""/>
    <tripinfo id="a1.1" depart="3.00" departLane="Z1_1" departPos="4.60" departSpeed="0.00" departDelay="2.00" arrival="21.00" arrivalLane="Z2_0" arrivalPos="62.97" arrivalSpeed="18.97" duration="18.00" routeLength="237.85" waitingTime="0.00" waitingCount="0" stopTime="0.00" timeLoss="5.64" rerouteNo="0" devices="tripinfo_a1.1" vType="myType" speedFactor="0.92" vaporized=""/>
    <tripinfo id="a2.1" depart="2.00" departLane="Z1_0" departPos="4.60" departSpeed="0.00" departDelay="0.80" arrival="22.00" arrivalLane="C2_1" arrivalPos="43.62" arrivalSpeed="11.73" duration="20.00" routeLength="218.50" waitingTime="0.00" waitingCount="0" stopTime="0.00" timeLoss="7.11" rerouteNo="0" devices="tripinfo_a2.1" vType="myType" speedFactor="0.93" vaporized=""/>
    <tripinfo id="a1.2" depart="6.00" departLane="Z1_1" departPos="4.60" departSpeed="0.00" departDelay="4.00" arrival="23.00" arrivalLane="Z2_0" arrivalPos="62.97" arrivalSpeed="19.61" duration="17.00" routeLength="237.85" waitingTime="0.00" waitingCount="0" stopTime="0.00" timeLoss="4.70" rerouteNo="0" devices="tripinfo_a1.2" vType="myType" speedFactor="0.94" vaporized=""/>
    <tripinfo id="a1_1.2" depart="6.00" departLane="Z1_2" departPos="4.60" departSpeed="0.00" departDelay="4.20" arrival="23.00" arrivalLane="Z2_1" arrivalPos="62.97" arrivalSpeed="19.60" duration="17.00" routeLength="237.85" waitingTime="0.00" waitingCount="0" stopTime="0.00" timeLoss="5.10" rerouteNo="0" devices="tripinfo_a1_1.2" vType="myType" speedFactor="0.97" vaporized=""/>
    <tripinfo id="b2.1" depart="4.00" departLane="C1_0" departPos="4.60" departSpeed="0.00" departDelay="0.40" arrival="24.00" arrivalLane="C2_0" arrivalPos="43.62" arrivalSpeed="12.62" duration="20.00" routeLength="192.08" waitingTime="0.00" waitingCount="0" stopTime="0.00" timeLoss="5.43" rerouteNo="0" devices="tripinfo_b2.1" vType="myType" speedFactor="0.97" vaporized=""/>
    <tripinfo id="b1.1" depart="4.00" departLane="C1_1" departPos="4.60" departSpeed="0.00" departDelay="0.40" arrival="25.00" arrivalLane="Z2_0" arrivalPos="62.97" arrivalSpeed="19.32" duration="21.00" routeLength="211.43" waitingTime="0.00" waitingCount="0" stopTime="0.00" timeLoss="5.86" rerouteNo="0" devices="tripinfo_b1.1" vType="myType" speedFactor="0.94" vaporized=""/>
    <tripinfo id="a1.3" depart="8.00" departLane="Z1_1" departPos="4.60" departSpeed="0.00" departDelay="5.00" arrival="26.00" arrivalLane="Z2_0" arrivalPos="62.97" arrivalSpeed="18.46" duration="18.00" routeLength="237.85" waitingTime="0.00" waitingCount="0" stopTime="0.00" timeLoss="6.10" rerouteNo="0" devices="tripinfo_a1.3" vType="myType" speedFactor="1.05" vaporized=""/>
    <tripinfo id="a1_1.3" depart="9.00" departLane="Z1_2" departPos="4.60" departSpeed="0.00" departDelay="6.30" arrival="26.00" arrivalLane="Z2_1" arrivalPos="62.97" arrivalSpeed="19.69" duration="17.00" routeLength="237.85" waitingTime="0.00" waitingCount="0" stopTime="0.00" timeLoss="4.89" rerouteNo="0" devices="tripinfo_a1_1.3" vType="myType" speedFactor="1.01" vaporized=""/>
    <tripinfo id="b2.2" depart="8.00" departLane="C1_0" departPos="4.60" departSpeed="0.00" departDelay="0.80" arrival="26.00" arrivalLane="C2_0" arrivalPos="43.62" arrivalSpeed="14.50" duration="18.00" routeLength="192.08" waitingTime="0.00" waitingCount="0" stopTime="0.00" timeLoss="4.55" rerouteNo="0" devices="tripinfo_b2.2" vType="myType" speedFactor="1.09" vaporized=""/>
    <tripinfo id="a2.2" depart="6.00" departLane="Z1_0" departPos="4.60" departSpeed="0.00" departDelay="3.60" arrival="27.00" arrivalLane="C2_1" arrivalPos="43.62" arrivalSpeed="13.17" duration="21.00" routeLength="218.50" waitingTime="0.00" waitingCount="0" stopTime="0.00" timeLoss="8.17" rerouteNo="0" devices="tripinfo_a2.2" vType="myType" speedFactor="1.02" vaporized=""/>
    <tripinfo id="a1.4" depart="11.00" departLane="Z1_1" departPos="4.60" departSpeed="0.00" departDelay="7.00" arrival="29.00" arrivalLane="Z2_0" arrivalPos="62.97" arrivalSpeed="19.14" duration="18.00" routeLength="237.85" waitingTime="0.00" waitingCount="0" stopTime="0.00" timeLoss="5.57" rerouteNo="0" devices="tripinfo_a1.4" vType="myType" speedFactor="1.06" vaporized=""/>
    <tripinfo id="a1_1.4" depart="12.00" departLane="Z1_2" departPos="4.60" departSpeed="0.00" departDelay="8.40" arrival="29.00" arrivalLane="Z2_1" arrivalPos="62.97" arrivalSpeed="19.78" duration="17.00" routeLength="237.85" waitingTime="0.00" waitingCount="0" stopTime="0.00" timeLoss="5.05" rerouteNo="0" devices="tripinfo_a1_1.4" vType="myType" speedFactor="1.00" vaporized=""/>
    <tripinfo id="a2.3" depart="9.00" departLane="Z1_0" departPos="4.60" departSpeed="0.00" departDelay="5.40" arrival="29.00" arrivalLane="C2_1" arrivalPos="43.62" arrivalSpeed="12.81" duration="20.00" routeLength="218.50" waitingTime="0.00" waitingCount="0" stopTime="0.00" timeLoss="7.52" rerouteNo="0" devices="tripinfo_a2.3" vType="myType" speedFactor="0.96" vaporized=""/>
    <tripinfo id="b2.3" depart="11.00" departLane="C1_0" departPos="4.60" departSpeed="0.00" departDelay="0.20" arrival="30.00" arrivalLane="C2_0" arrivalPos="43.62" arrivalSpeed="13.33" duration="19.00" routeLength="192.08" waitingTime="0.00" waitingCount="0" stopTime="0.00" timeLoss="4.93" rerouteNo="0" devices="tripinfo_b2.3" vType="myType" speedFactor="1.05" vaporized=""/>
    <tripinfo id="b1.2" depart="8.00" departLane="C1_1" departPos="4.60" departSpeed="0.00" departDelay="0.80" arrival="31.00" arrivalLane="Z2_0" arrivalPos="62.97" arrivalSpeed="19.84" duration="23.00" routeLength="211.43" waitingTime="0.00" waitingCount="0" stopTime="0.00" timeLoss="7.97" rerouteNo="0" devices="tripinfo_b1.2" vType="myType" speedFactor="0.97" vaporized=""/>
    <tripinfo id="a1.5" depart="14.00" departLane="Z1_1" departPos="4.60" departSpeed="0.00" departDelay="9.00" arrival="32.00" arrivalLane="Z2_0" arrivalPos="62.97" arrivalSpeed="19.96" duration="18.00" routeLength="237.85" waitingTime="1.00" waitingCount="1" stopTime="0.00" timeLoss="5.99" rerouteNo="0" devices="tripinfo_a1.5" vType="myType" speedFactor="0.97" vaporized=""/>
    <tripinfo id="a1_1.5" depart="15.00" departLane="Z1_2" departPos="4.60" departSpeed="0.00" departDelay="10.50" arrival="32.00" arrivalLane="Z2_1" arrivalPos="62.97" arrivalSpeed="19.24" duration="17.00" routeLength="237.85" waitingTime="0.00" waitingCount="0" stopTime="0.00" timeLoss="5.06" rerouteNo="0" devices="tripinfo_a1_1.5" vType="myType" speedFactor="1.08" vaporized=""/>
    <tripinfo id="a2.4" depart="12.00" departLane="Z1_0" departPos="4.60" departSpeed="0.00" departDelay="7.20" arrival="34.00" arrivalLane="C2_1" arrivalPos="43.62" arrivalSpeed="13.02" duration="22.00" routeLength="218.50" waitingTime="0.00" waitingCount="0" stopTime="0.00" timeLoss="9.45" rerouteNo="0" devices="tripinfo_a2.4" vType="myType" speedFactor="1.01" vaporized=""/>
    <tripinfo id="b1.3" depart="11.00" departLane="C1_1" departPos="4.60" departSpeed="0.00" departDelay="0.20" arrival="34.00" arrivalLane="Z2_0" arrivalPos="62.97" arrivalSpeed="19.84" duration="23.00" routeLength="211.43" waitingTime="0.00" waitingCount="0" stopTime="0.00" timeLoss="8.15" rerouteNo="0" devices="tripinfo_b1.3" vType="myType" speedFactor="0.98" vaporized=""/>
    <tripinfo id="b2.4" depart="15.00" departLane="C1_0" departPos="4.60" departSpeed="0.00" departDelay="0.60" arrival="34.00" arrivalLane="C2_0" arrivalPos="43.62" arrivalSpeed="13.16" duration="19.00" routeLength="192.08" waitingTime="0.00" waitingCount="0" stopTime="0.00" timeLoss="4.21" rerouteNo="0" devices="tripinfo_b2.4" vType="myType" speedFactor="1.00" vaporized=""/>
    <tripinfo id="a1_1.6" depart="18.00" departLane="Z1_2" departPos="4.60" departSpeed="0.00" departDelay="12.60" arrival="35.00" arrivalLane="Z2_1" arrivalPos="62.97" arrivalSpeed="19.04" duration="17.00" routeLength="237.85" waitingTime="0.00" waitingCount="0" stopTime="0.00" timeLoss="4.83" rerouteNo="0" devices="tripinfo_a1_1.6" vType="myType" speedFactor="0.99" vaporized=""/>
    <tripinfo id="a1.6" depart="18.00" departLane="Z1_1" departPos="4.60" departSpeed="0.00" departDelay="12.00" arrival="36.00" arrivalLane="Z2_0" arrivalPos="62.97" arrivalSpeed="19.90" duration="18.00" routeLength="237.85" waitingTime="0.00" waitingCount="0" stopTime="0.00" timeLoss="5.51" rerouteNo="0" devices="tripinfo_a1.6" vType="myType" speedFactor="1.01" vaporized=""/>
    <tripinfo id="a2.5" depart="15.00" departLane="Z1_0" departPos="4.60" departSpeed="0.00" departDelay="9.00" arrival="36.00" arrivalLane="C2_1" arrivalPos="43.62" arrivalSpeed="12.14" duration="21.00" routeLength="218.50" waitingTime="0.00" waitingCount="0" stopTime="0.00" timeLoss="8.72" rerouteNo="0" devices="tripinfo_a2.5" vType="myType" speedFactor="0.94" vaporized=""/>
    <tripinfo id="a1_1.7" depart="21.00" departLane="Z1_2" departPos="4.60" departSpeed="0.00" departDelay="14.70" arrival="38.00" arrivalLane="Z2_1" arrivalPos="62.97" arrivalSpeed="19.17" duration="17.00" routeLength="237.85" waitingTime="0.00" waitingCount="0" stopTime="0.00" timeLoss="5.05" rerouteNo="0" devices="tripinfo_a1_1.7" vType="myType" speedFactor="0.94" vaporized=""/>
    <tripinfo id="a2.6" depart="18.00" departLane="Z1_0" departPos="4.60" departSpeed="0.00" departDelay="10.80" arrival="38.00" arrivalLane="C2_1" arrivalPos="43.62" arrivalSpeed="13.64" duration="20.00" routeLength="218.50" waitingTime="0.00" waitingCount="0" stopTime="0.00" timeLoss="8.08" rerouteNo="0" devices="tripinfo_a2.6" vType="myType" speedFactor="1.07" vaporized=""/>
    <tripinfo id="b2.5" depart="18.00" departLane="C1_0" departPos="4.60" departSpeed="0.00" departDelay="0.00" arrival="38.00" arrivalLane="C2_0" arrivalPos="43.62" arrivalSpeed="12.75" duration="20.00" routeLength="192.08" waitingTime="0.00" waitingCount="0" stopTime="0.00" timeLoss="4.66" rerouteNo="0" devices="tripinfo_b2.5" vType="myType" speedFactor="0.96" vaporized=""/>
    <tripinfo id="a1.7" depart="21.00" departLane="Z1_1" departPos="4.60" departSpeed="0.00" departDelay="14.00" arrival="39.00" arrivalLane="Z2_0" arrivalPos="62.97" arrivalSpeed="19.35" duration="18.00" routeLength="237.85" waitingTime="0.00" waitingCount="0" stopTime="0.00" timeLoss="5.49" rerouteNo="0" devices="tripinfo_a1.7" vType="myType" speedFactor="0.91" vaporized=""/>
    <tripinfo id="b1.4" depart="15.00" departLane="C1_1" departPos="4.60" departSpeed="0.00" departDelay="0.60" arrival="40.00" arrivalLane="Z2_0" arrivalPos="62.97" arrivalSpeed="18.76" duration="25.00" routeLength="211.43" waitingTime="0.00" waitingCount="0" stopTime="0.00" timeLoss="10.69" rerouteNo="0" devices="tripinfo_b1.4" vType="myType" speedFactor="1.00" vaporized=""/>
    <tripinfo id="a1_1.8" depart="24.00" departLane="Z1_2" departPos="4.60" departSpeed="0.00" departDelay="16.80" arrival="41.00" arrivalLane="Z2_1" arrivalPos="62.97" arrivalSpeed="19.23" duration="17.00" routeLength="237.85" waitingTime="0.00" waitingCount="0" stopTime="0.00" timeLoss="4.79" rerouteNo="0" devices="tripinfo_a1_1.8" vType="myType" speedFactor="0.97" vaporized=""/>
    <tripinfo id="a1.8" depart="24.00" departLane="Z1_1" departPos="4.60" departSpeed="0.00" departDelay="16.00" arrival="42.00" arrivalLane="Z2_0" arrivalPos="62.97" arrivalSpeed="19.26" duration="18.00" routeLength="237.85" waitingTime="0.00" waitingCount="0" stopTime="0.00" timeLoss="5.62" rerouteNo="0" devices="tripinfo_a1.8" vType="myType" speedFactor="0.96" vaporized=""/>
    <tripinfo id="b2.6" depart="22.00" departLane="C1_0" departPos="4.60" departSpeed="0.00" departDelay="0.40" arrival="42.00" arrivalLane="C2_0" arrivalPos="43.62" arrivalSpeed="14.05" duration="20.00" routeLength="192.08" waitingTime="0.00" waitingCount="0" stopTime="0.00" timeLoss="5.39" rerouteNo="0" devices="tripinfo_b2.6" vType="myType" speedFactor="1.02" vaporized=""/>
    <tripinfo id="a1_1.9" depart="27.00" departLane="Z1_2" departPos="4.60" departSpeed="0.00" departDelay="18.90" arrival="44.00" arrivalLane="Z2_1" arrivalPos="62.97" arrivalSpeed="19.39" duration="17.00" routeLength="237.85" waitingTime="0.00" waitingCount="0" stopTime="0.00" timeLoss="4.73" rerouteNo="0" devices="tripinfo_a1_1.9" vType="myType" speedFactor="1.00" vaporized=""/>
    <tripinfo id="b1.5" depart="18.00" departLane="C1_1" departPos="4.60" departSpeed="0.00" departDelay="0.00" arrival="44.00" arrivalLane="Z2_0" arrivalPos="62.97" arrivalSpeed="18.51" duration="26.00" routeLength="211.43" waitingTime="0.00" waitingCount="0" stopTime="0.00" timeLoss="11.01" rerouteNo="0" devices="tripinfo_b1.5" vType="myType" speedFactor="0.95" vaporized=""/>
    <tripinfo id="a2.7" depart="21.00" departLane="Z1_0" departPos="4.60" departSpeed="0.00" departDelay="12.60" arrival="45.00" arrivalLane="C2_1" arrivalPos="43.62" arrivalSpeed="13.23" duration="24.00" routeLength="218.50" waitingTime="0.00" waitingCount="0" stopTime="0.00" timeLoss="11.58" rerouteNo="0" devices="tripinfo_a2.7" vType="myType" speedFactor="1.00" vaporized=""/>
    <tripinfo id="a1.9" depart="27.00" departLane="Z1_1" departPos="4.60" departSpeed="0.00" departDelay="18.00" arrival="46.00" arrivalLane="Z2_0" arrivalPos="62.97" arrivalSpeed="19.06" duration="19.00" routeLength="237.85" waitingTime="0.00" waitingCount="0" stopTime="0.00" timeLoss="6.25" rerouteNo="0" devices="tripinfo_a1.9" vType="myType" speedFactor="1.08" vaporized=""/>
    <tripinfo id="b2.7" depart="26.00" departLane="C1_0" departPos="4.60" departSpeed="0.00" departDelay="0.80" arrival="46.00" arrivalLane="C2_0" arrivalPos="43.62" arrivalSpeed="13.28" duration="20.00" routeLength="192.08" waitingTime="0.00" waitingCount="0" stopTime="0.00" timeLoss="4.64" rerouteNo="0" devices="tripinfo_b2.7" vType="myType" speedFactor="0.96" vaporized=""/>
    <tripinfo id="a1_1.10" depart="30.00" departLane="Z1_2" departPos="4.60" departSpeed="0.00" departDelay="21.00" arrival="47.00" arrivalLane="Z2_1" arrivalPos="62.97" arrivalSpeed="18.99" duration="17.00" routeLength="237.85" waitingTime="0.00" waitingCount="0" stopTime="0.00" timeLoss="4.96" rerouteNo="0" devices="tripinfo_a1_1.10" vType="myType" speedFactor="1.09" vaporized=""/>
    <tripinfo id="a2.8" depart="24.00" departLane="Z1_0" departPos="4.60" departSpeed="0.00" departDelay="14.40" arrival="47.00" arrivalLane="C2_1" arrivalPos="43.62" arrivalSpeed="13.98" duration="23.00" routeLength="218.50" waitingTime="0.00" waitingCount="0" stopTime="0.00" timeLoss="10.84" rerouteNo="0" devices="tripinfo_a2.8" vType="myType" speedFactor="1.09" vaporized=""/>
    <tripinfo id="a1.10" depart="30.00" departLane="Z1_1" departPos="4.60" departSpeed="0.00" departDelay="20.00" arrival="48.00" arrivalLane="Z2_0" arrivalPos="62.97" arrivalSpeed="19.03" duration="18.00" routeLength="237.85" waitingTime="0.00" waitingCount="0" stopTime="0.00" timeLoss="5.24" rerouteNo="0" devices="tripinfo_a1.10" vType="myType" speedFactor="1.01" vaporized=""/>
    <tripinfo id="a2.9" depart="27.00" departLane="Z1_0" departPos="4.60" departSpeed="0.00" departDelay="16.20" arrival="49.00" arrivalLane="C2_1" arrivalPos="43.62" arrivalSpeed="12.90" duration="22.00" routeLength="218.50" waitingTime="0.00" waitingCount="0" stopTime="0.00" timeLoss="9.81" rerouteNo="0" devices="tripinfo_a2.9" vType="myType" speedFactor="1.02" vaporized=""/>
    <tripinfo id="b2.8" depart="29.00" departLane="C1_0" departPos="4.60" departSpeed="0.00" departDelay="0.20" arrival="49.00" arrivalLane="C2_0" arrivalPos="43.62" arrivalSpeed="13.16" duration="20.00" routeLength="192.08" waitingTime="0.00" waitingCount="0" stopTime="0.00" timeLoss="5.19" rerouteNo="0" devices="tripinfo_b2.8" vType="myType" speedFactor="1.04" vaporized=""/>
    <tripinfo id="a1_1.11" depart="33.00" departLane="Z1_2" departPos="4.60" departSpeed="0.00" departDelay="23.10" arrival="51.00" arrivalLane="Z2_1" arrivalPos="62.97" arrivalSpeed="18.93" duration="18.00" routeLength="237.85" waitingTime="0.00" waitingCount="0" stopTime="0.00" timeLoss="5.31" rerouteNo="0" devices="tripinfo_a1_1.11" vType="myType" speedFactor="0.99" vaporized=""/>
    <tripinfo id="a1.11" depart="33.00" departLane="Z1_1" departPos="4.60" departSpeed="0.00" departDelay="22.00" arrival="51.00" arrivalLane="Z2_0" arrivalPos="62.97" arrivalSpeed="19.36" duration="18.00" routeLength="237.85" waitingTime="0.00" waitingCount="0" stopTime="0.00" timeLoss="5.24" rerouteNo="0" devices="tripinfo_a1.11" vType="myType" speedFactor="1.05" vaporized=""/>
    <tripinfo id="a2.10" depart="30.00" departLane="Z1_0" departPos="4.60" departSpeed="0.00" departDelay="18.00" arrival="51.00" arrivalLane="C2_1" arrivalPos="43.62" arrivalSpeed="14.33" duration="21.00" routeLength="218.50" waitingTime="0.00" waitingCount="0" stopTime="0.00" timeLoss="8.87" rerouteNo="0" devices="tripinfo_a2.10" vType="myType" speedFactor="1.04" vaporized=""/>
    <tripinfo id="b1.6" depart="22.00" departLane="C1_1" departPos="4.60" departSpeed="0.00" departDelay="0.40" arrival="50.00" arrivalLane="Z2_0" arrivalPos="62.97" arrivalSpeed="17.35" duration="28.00" routeLength="211.43" waitingTime="2.00" waitingCount="1" stopTime="0.00" timeLoss="16.89" rerouteNo="0" devices="tripinfo_b1.6" vType="myType" speedFactor="1.04" vaporized="teleport"/>
    <tripinfo id="a1.12" depart="36.00" departLane="Z1_1" departPos="4.60" departSpeed="0.00" departDelay="24.00" arrival="53.00" arrivalLane="Z2_0" arrivalPos="62.97" arrivalSpeed="19.34" duration="17.00" routeLength="237.85" waitingTime="0.00" waitingCount="0" stopTime="0.00" timeLoss="4.70" rerouteNo="0" devices="tripinfo_a1.12" vType="myType" speedFactor="1.02" vaporized=""/>
    <tripinfo id="b2.9" depart="33.00" departLane="C1_0" departPos="4.60" departSpeed="0.00" departDelay="0.60" arrival="53.00" arrivalLane="C2_0" arrivalPos="43.62" arrivalSpeed="13.74" duration="20.00" routeLength="192.08" waitingTime="0.00" waitingCount="0" stopTime="0.00" timeLoss="5.09" rerouteNo="0" devices="tripinfo_b2.9" vType="myType" speedFactor="1.00" vaporized=""/>
    <tripinfo id="a1_1.12" depart="36.00" departLane="Z1_2" departPos="4.60" departSpeed="0.00" departDelay="25.20" arrival="54.00" arrivalLane="Z2_1" arrivalPos="62.97" arrivalSpeed="19.88" duration="18.00" routeLength="237.85" waitingTime="0.00" waitingCount="0" stopTime="0.00" timeLoss="5.33" rerouteNo="0" devices="tripinfo_a1_1.12" vType="myType" speedFactor="0.95" vaporized=""/>
    <tripinfo id="b2.10" depart="36.00" departLane="C1_0" departPos="4.60" departSpeed="0.00" departDelay="0.00" arrival="56.00" arrivalLane="C2_0" arrivalPos="43.62" arrivalSpeed="13.62" duration="20.00" routeLength="192.08" waitingTime="0.00" waitingCount="0" stopTime="0.00" timeLoss="5.04" rerouteNo="0" devices="tripinfo_b2.10" vType="myType" speedFactor="1.02" vaporized=""/>
    <tripinfo id="a1_1.13" depart="39.00" departLane="Z1_2" departPos="4.60" departSpeed="0.00" departDelay="27.30" arrival="57.00" arrivalLane="Z2_1" arrivalPos="62.97" arrivalSpeed="18.83" duration="18.00" routeLength="237.85" waitingTime="0.00" waitingCount="0" stopTime="0.00" timeLoss="5.18" rerouteNo="0" devices="tripinfo_a1_1.13" vType="myType" speedFactor="1.02" vaporized=""/>
    <tripinfo id="a1.13" depart="39.00" departLane="Z1_1" departPos="4.60" departSpeed="0.00" departDelay="26.00" arrival="57.00" arrivalLane="Z2_0" arrivalPos="62.97" arrivalSpeed="19.90" duration="18.00" routeLength="237.85" waitingTime="0.00" waitingCount="0" stopTime="0.00" timeLoss="5.43" rerouteNo="0" devices="tripinfo_a1.13" vType="myType" speedFactor="1.00" vaporized=""/>
    <tripinfo id="a2.11" depart="33.00" departLane="Z1_0" departPos="4.60" departSpeed="0.00" departDelay="19.80" arrival="57.00" arrivalLane="C2_1" arrivalPos="43.62" arrivalSpeed="11.61" duration="24.00" routeLength="218.50" waitingTime="0.00" waitingCount="0" stopTime="0.00" timeLoss="10.91" rerouteNo="0" devices="tripinfo_a2.11" vType="myType" speedFactor="0.93" vaporized=""/>
    <tripinfo id="a1_1.14" depart="42.00" departLane="Z1_2" departPos="4.60" departSpeed="0.00" departDelay="29.40" arrival="59.00" arrivalLane="Z2_1" arrivalPos="62.97" arrivalSpeed="19.96" duration="17.00" routeLength="237.85" waitingTime="0.00" waitingCount="0" stopTime="0.00" timeLoss="4.95" rerouteNo="0" devices="tripinfo_a1_1.14" vType="myType" speedFactor="0.95" vaporized=""/>
    <tripinfo id="a1.14" depart="42.00" departLane="Z1_1" departPos="4.60" departSpeed="0.00" departDelay="28.00" arrival="59.00" arrivalLane="Z2_0" arrivalPos="62.97" arrivalSpeed="18.95" duration="17.00" routeLength="237.85" waitingTime="0.00" waitingCount="0" stopTime="0.00" timeLoss="4.88" rerouteNo="0" devices="tripinfo_a1.14" vType="myType" speedFactor="0.94" vaporized=""/>
    <tripinfo id="a2.12" depart="36.00" departLane="Z1_0" departPos="4.60" departSpeed="0.00" departDelay="21.60" arrival="59.00" arrivalLane="C2_1" arrivalPos="43.62" arrivalSpeed="13.87" duration="23.00" routeLength="218.50" waitingTime="0.00" waitingCount="0" stopTime="0.00" timeLoss="10.36" rerouteNo="0" devices="tripinfo_a2.12" vType="myType" speedFactor="1.05" vaporized=""/>
    <tripinfo id="b1.9" depart="33.00" departLane="C1_1" departPos="4.60" departSpeed="0.00" departDelay="0.60" arrival="59.00" arrivalLane="Z2_0" arrivalPos="62.97" arrivalSpeed="16.06" duration="26.00" routeLength="211.43" waitingTime="0.00" waitingCount="0" stopTime="0.00" timeLoss="15.09" rerouteNo="0" devices="tripinfo_b1.9" vType="myType" speedFactor="1.00" vaporized="teleport"/>
    <tripinfo id="b2.11" depart="40.00" departLane="C1_0" departPos="4.60" departSpeed="0.00" departDelay="0.40" arrival="60.00" arrivalLane="C2_0" arrivalPos="43.62" arrivalSpeed="14.46" duration="20.00" routeLength="192.08" waitingTime="0.00" waitingCount="0" stopTime="0.00" timeLoss="5.63" rerouteNo="0" devices="tripinfo_b2.11" vType="myType" speedFactor="1.06" vaporized=""/>
    <tripinfo id="b1.7" depart="26.00" departLane="C1_1" departPos="4.60" departSpeed="0.00" departDelay="0.80" arrival="61.00" arrivalLane="Z2_0" arrivalPos="62.97" arrivalSpeed="19.48" duration="35.00" routeLength="211.43" waitingTime="1.00" waitingCount="1" stopTime="0.00" timeLoss="19.53" rerouteNo="0" devices="tripinfo_b1.7" vType="myType" speedFactor="0.92" vaporized=""/>
    <tripinfo id="a1_1.15" depart="45.00" departLane="Z1_2" departPos="4.60" departSpeed="0.00" departDelay="31.50" arrival="62.00" arrivalLane="Z2_1" arrivalPos="62.97" arrivalSpeed="18.83" duration="17.00" routeLength="237.85" waitingTime="0.00" waitingCount="0" stopTime="0.00" timeLoss="4.68" rerouteNo="0" devices="tripinfo_a1_1.15" vType="myType" speedFactor="0.93" vaporized=""/>
    <tripinfo id="a1.15" depart="45.00" departLane="Z1_1" departPos="4.60" departSpeed="0.00" departDelay="30.00" arrival="62.00" arrivalLane="Z2_0" arrivalPos="62.97" arrivalSpeed="19.62" duration="17.00" routeLength="237.85" waitingTime="0.00" waitingCount="0" stopTime="0.00" timeLoss="5.07" rerouteNo="0" devices="tripinfo_a1.15" vType="myType" speedFactor="1.08" vaporized=""/>
    <tripinfo id="b2.12" depart="44.00" departLane="C1_0" departPos="4.60" departSpeed="0.00" departDelay="0.80" arrival="63.00" arrivalLane="C2_0" arrivalPos="43.62" arrivalSpeed="14.72" duration="19.00" routeLength="192.08" waitingTime="0.00" waitingCount="0" stopTime="0.00" timeLoss="5.26" rerouteNo="0" devices="tripinfo_b2.12" vType="myType" speedFactor="1.09" vaporized=""/>
    <tripinfo id="a2.13" depart="39.00" departLane="Z1_0" departPos="4.60" departSpeed="0.00" departDelay="23.40" arrival="64.00" arrivalLane="C2_1" arrivalPos="43.62" arrivalSpeed="13.58" duration="25.00" routeLength="218.50" waitingTime="0.00" waitingCount="0" stopTime="0.00" timeLoss="12.07" rerouteNo="0" devices="tripinfo_a2.13" vType="myType" speedFactor="1.01" vaporized=""/>
    <tripinfo id="a1_1.16" depart="48.00" departLane="Z1_2" departPos="4.60" departSpeed="0.00" departDelay="33.60" arrival="65.00" arrivalLane="Z2_1" arrivalPos="62.97" arrivalSpeed="19.24" duration="17.00" routeLength="237.85" waitingTime="0.00" waitingCount="0" stopTime="0.00" timeLoss="4.31" rerouteNo="0" devices="tripinfo_a1_1.16" vType="myType" speedFactor="1.01" vaporized=""/>
    <tripinfo id="a1.16" depart="48.00" departLane="Z1_1" departPos="4.60" departSpeed="0.00" departDelay="32.00" arrival="65.00" arrivalLane="Z2_0" arrivalPos="62.97" arrivalSpeed="18.93" duration="17.00" routeLength="237.85" waitingTime="0.00" waitingCount="0" stopTime="0.00" timeLoss="4.66" rerouteNo="0" devices="tripinfo_a1.16" vType="myType" speedFactor="0.95" vaporized=""/>
    <tripinfo id="a2.14" depart="42.00" departLane="Z1_0" departPos="4.60" departSpeed="0.00" departDelay="25.20" arrival="66.00" arrivalLane="C2_1" arrivalPos="43.62" arrivalSpeed="14.66" duration="24.00" routeLength="218.50" waitingTime="0.00" waitingCount="0" stopTime="0.00" timeLoss="11.80" rerouteNo="0" devices="tripinfo_a2.14" vType="myType" speedFactor="1.06" vaporized=""/>
    <tripinfo id="b1.8" depart="29.00" departLane="C1_1" departPos="4.60" departSpeed="0.00" departDelay="0.20" arrival="66.00" arrivalLane="Z2_0" arrivalPos="62.97" arrivalSpeed="18.20" duration="37.00" routeLength="211.43" waitingTime="2.00" waitingCount="1" stopTime="0.00" timeLoss="22.44" rerouteNo="0" devices="tripinfo_b1.8" vType="myType" speedFactor="0.95" vaporized=""/>
    <tripinfo id="b2.13" depart="47.00" departLane="C1_0" departPos="4.60" departSpeed="0.00" departDelay="0.20" arrival="66.00" arrivalLane="C2_0" arrivalPos="43.62" arrivalSpeed="12.61" duration="19.00" routeLength="192.08" waitingTime="0.00" waitingCount="0" stopTime="0.00" timeLoss="4.75" rerouteNo="0" devices="tripinfo_b2.13" vType="myType" speedFactor="0.99" vaporized=""/>
    <tripinfo id="a1_1.17" depart="50.00" departLane="Z1_2" departPos="4.60" departSpeed="0.00" departDelay="34.70" arrival="69.00" arrivalLane="Z2_1" arrivalPos="62.97" arrivalSpeed="19.85" duration="19.00" routeLength="237.85" waitingTime="0.00" waitingCount="0" stopTime="0.00" timeLoss="6.14" rerouteNo="0" devices="tripinfo_a1_1.17" vType="myType" speedFactor="1.07" vaporized=""/>
    <tripinfo id="a1.17" depart="51.00" departLane="Z1_1" departPos="4.60" departSpeed="0.00" departDelay="34.00" arrival="69.00" arrivalLane="Z2_0" arrivalPos="62.97" arrivalSpeed="18.70" duration="18.00" routeLength="237.85" waitingTime="0.00" waitingCount="0" stopTime="0.00" timeLoss="5.23" rerouteNo="0" devices="tripinfo_a1.17" vType="myType" speedFactor="0.98" vaporized=""/>