<?xml version="1.0" encoding="UTF-8"?>

<!-- generated on 2021-11-29 17:43:25 by Eclipse SUMO sumo Version 1.10.0
<configuration xmlns:xsi="http://www.w3.org/2001/XMLSchema-instance" xsi:noNamespaceSchemaLocation="http://sumo.dlr.de/xsd/sumoConfiguration.xsd">

    <input>
        <net-file value="Q-learning-control/test1.net.xml"/>
        <route-files value="Q-learning-control/routes.rou.xml"/>
    </input>

    <output>
        <tripinfo-output value="F:\大学\MTFwiki\SUMO-Q_learning\SUMO-RL-ramp-control\Q-learning-control/tripinfo2_TEST.xml"/>
    </output>

    <time>
        <begin value="0"/>
        <end value="2000"/>
    </time>

    <processing>
        <lateral-resolution value="3.5"/>
    </processing>

    <report>
        <verbose value="true"/>
        <duration-log.statistics value="true"/>
    </report>

    <traci_server>
        <remote-port value="62317"/>
    </traci_server>

    <gui_only>
        <gui-settings-file value="Q-learning-control/gui-settings.cfg"/>
        <quit-on-end value="true"/>
        <start value="true"/>
    </gui_only>

</configuration>
-->

<tripinfos xmlns:xsi="http://www.w3.org/2001/XMLSchema-instance" xsi:noNamespaceSchemaLocation="http://sumo.dlr.de/xsd/tripinfo_file.xsd">
    <tripinfo id="a1.0" depart="0.00" departLane="Z1_1" departPos="4.60" departPosLat="0.00" departSpeed="0.00" departDelay="0.00" arrival="17.00" arrivalLane="Z2_1" arrivalPos="59.28" arrivalPosLat="0.00" arrivalSpeed="18.85" duration="17.00" routeLength="234.16" waitingTime="0.00" waitingCount="0" stopTime="0.00" timeLoss="4.99" rerouteNo="0" devices="tripinfo_a1.0" vType="myType" speedFactor="1.03" vaporized=""/>
    <tripinfo id="a2.0" depart="0.00" departLane="Z1_0" departPos="4.60" departPosLat="0.00" departSpeed="0.00" departDelay="0.00" arrival="19.00" arrivalLane="C2_1" arrivalPos="45.04" arrivalPosLat="0.00" arrivalSpeed="13.81" duration="19.00" routeLength="219.92" waitingTime="0.00" waitingCount="0" stopTime="0.00" timeLoss="6.57" rerouteNo="0" devices="tripinfo_a2.0" vType="myType" speedFactor="1.01" vaporized=""/>
    <tripinfo id="b1.0" depart="0.00" departLane="C1_1" departPos="4.60" departPosLat="0.00" departSpeed="0.00" departDelay="0.00" arrival="19.00" arrivalLane="Z2_0" arrivalPos="59.28" arrivalPosLat="0.00" arrivalSpeed="19.00" duration="19.00" routeLength="207.74" waitingTime="0.00" waitingCount="0" stopTime="0.00" timeLoss="5.48" rerouteNo="0" devices="tripinfo_b1.0" vType="myType" speedFactor="1.04" vaporized=""/>
    <tripinfo id="a1_1.0" depart="0.00" departLane="Z1_2" departPos="4.60" departPosLat="0.00" departSpeed="0.00" departDelay="0.00" arrival="20.00" arrivalLane="Z2_1" arrivalPos="59.28" arrivalPosLat="0.00" arrivalSpeed="19.92" duration="20.00" routeLength="234.16" waitingTime="0.00" waitingCount="0" stopTime="0.00" timeLoss="7.61" rerouteNo="0" devices="tripinfo_a1_1.0" vType="myType" speedFactor="0.97" vaporized=""/>
    <tripinfo id="b2.0" depart="0.00" departLane="C1_0" departPos="4.60" departPosLat="0.00" departSpeed="0.00" departDelay="0.00" arrival="20.00" arrivalLane="C2_0" arrivalPos="45.04" arrivalPosLat="0.00" arrivalSpeed="13.08" duration="20.00" routeLength="193.50" waitingTime="0.00" waitingCount="0" stopTime="0.00" timeLoss="4.92" rerouteNo="0" devices="tripinfo_b2.0" vType="myType" speedFactor="1.02" vaporized=""/>
    <tripinfo id="a1_1.1" depart="3.00" departLane="Z1_2" departPos="4.60" departPosLat="0.00" departSpeed="0.00" departDelay="2.10" arrival="22.00" arrivalLane="Z2_1" arrivalPos="59.28" arrivalPosLat="0.00" arrivalSpeed="19.60" duration="19.00" routeLength="234.16" waitingTime="0.00" waitingCount="0" stopTime="0.00" timeLoss="6.79" rerouteNo="0" devices="tripinfo_a1_1.1" vType="myType" speedFactor="1.02" vaporized=""/>
    <tripinfo id="a2.1" depart="2.00" departLane="Z1_0" departPos="4.60" departPosLat="0.00" departSpeed="0.00" departDelay="0.80" arrival="22.00" arrivalLane="C2_1" arrivalPos="45.04" arrivalPosLat="0.00" arrivalSpeed="12.39" duration="20.00" routeLength="219.92" waitingTime="0.00" waitingCount="0" stopTime="0.00" timeLoss="7.42" rerouteNo="0" devices="tripinfo_a2.1" vType="myType" speedFactor="0.93" vaporized=""/>
    <tripinfo id="a1_1.2" depart="6.00" departLane="Z1_2" departPos="4.60" departPosLat="0.00" departSpeed="0.00" departDelay="4.20" arrival="24.00" arrivalLane="Z2_1" arrivalPos="59.28" arrivalPosLat="0.00" arrivalSpeed="19.69" duration="18.00" routeLength="234.16" waitingTime="0.00" waitingCount="0" stopTime="0.00" timeLoss="5.91" rerouteNo="0" devices="tripinfo_a1_1.2" vType="myType" speedFactor="0.97" vaporized=""/>
    <tripinfo id="b1.1" depart="4.00" departLane="C1_1" departPos="4.60" departPosLat="0.00" departSpeed="0.00" departDelay="0.40" arrival="24.00" arrivalLane="Z2_0" arrivalPos="59.28" arrivalPosLat="0.00" arrivalSpeed="19.16" duration="20.00" routeLength="207.74" waitingTime="0.00" waitingCount="0" stopTime="0.00" timeLoss="5.66" rerouteNo="0" devices="tripinfo_b1.1" vType="myType" speedFactor="0.94" vaporized=""/>
    <tripinfo id="b2.1" depart="4.00" departLane="C1_0" departPos="4.60" departPosLat="0.00" departSpeed="0.00" departDelay="0.40" arrival="24.00" arrivalLane="C2_0" arrivalPos="45.04" arrivalPosLat="0.00" arrivalSpeed="12.62" duration="20.00" routeLength="193.50" waitingTime="0.00" waitingCount="0" stopTime="0.00" timeLoss="5.41" rerouteNo="0" devices="tripinfo_b2.1" vType="myType" speedFactor="0.97" vaporized=""/>
    <tripinfo id="a1.1" depart="3.00" departLane="Z1_1" departPos="4.60" departPosLat="0.00" departSpeed="0.00" departDelay="2.00" arrival="26.00" arrivalLane="Z2_1" arrivalPos="59.28" arrivalPosLat="0.00" arrivalSpeed="19.78" duration="23.00" routeLength="234.16" waitingTime="0.00" waitingCount="0" stopTime="0.00" timeLoss="10.88" rerouteNo="0" devices="tripinfo_a1.1" vType="myType" speedFactor="0.92" vaporized=""/>
    <tripinfo id="b1.2" depart="8.00" departLane="C1_1" departPos="4.60" departPosLat="0.00" departSpeed="0.00" departDelay="0.80" arrival="27.00" arrivalLane="Z2_0" arrivalPos="59.28" arrivalPosLat="0.00" arrivalSpeed="19.85" duration="19.00" routeLength="207.74" waitingTime="0.00" waitingCount="0" stopTime="0.00" timeLoss="4.98" rerouteNo="0" devices="tripinfo_b1.2" vType="myType" speedFactor="0.97" vaporized=""/>
    <tripinfo id="b2.2" depart="8.00" departLane="C1_0" departPos="4.60" departPosLat="0.00" departSpeed="0.00" departDelay="0.80" arrival="27.00" arrivalLane="C2_0" arrivalPos="45.04" arrivalPosLat="0.00" arrivalSpeed="14.45" duration="19.00" routeLength="193.50" waitingTime="0.00" waitingCount="0" stopTime="0.00" timeLoss="4.59" rerouteNo="0" devices="tripinfo_b2.2" vType="myType" speedFactor="1.09" vaporized=""/>
    <tripinfo id="a1_1.3" depart="9.00" departLane="Z1_2" departPos="4.60" departPosLat="0.00" departSpeed="0.00" departDelay="6.30" arrival="29.00" arrivalLane="Z2_1" arrivalPos="59.28" arrivalPosLat="0.00" arrivalSpeed="19.24" duration="20.00" routeLength="234.16" waitingTime="0.00" waitingCount="0" stopTime="0.00" timeLoss="7.64" rerouteNo="0" devices="tripinfo_a1_1.3" vType="myType" speedFactor="1.01" vaporized=""/>
    <tripinfo id="a2.2" depart="6.00" departLane="Z1_0" departPos="4.60" departPosLat="0.00" departSpeed="0.00" departDelay="3.60" arrival="30.00" arrivalLane="C2_1" arrivalPos="45.04" arrivalPosLat="0.00" arrivalSpeed="13.09" duration="24.00" routeLength="219.92" waitingTime="0.00" waitingCount="0" stopTime="0.00" timeLoss="11.57" rerouteNo="0" devices="tripinfo_a2.2" vType="myType" speedFactor="1.02" vaporized=""/>
    <tripinfo id="b2.3" depart="11.00" departLane="C1_0" departPos="4.60" departPosLat="0.00" departSpeed="0.00" departDelay="0.20" arrival="30.00" arrivalLane="C2_0" arrivalPos="45.04" arrivalPosLat="0.00" arrivalSpeed="13.26" duration="19.00" routeLength="193.50" waitingTime="0.00" waitingCount="0" stopTime="0.00" timeLoss="4.97" rerouteNo="0" devices="tripinfo_b2.3" vType="myType" speedFactor="1.05" vaporized=""/>
    <tripinfo id="a1.3" depart="11.00" departLane="Z1_1" departPos="4.60" departPosLat="0.00" departSpeed="0.00" departDelay="8.00" arrival="31.00" arrivalLane="Z2_1" arrivalPos="59.28" arrivalPosLat="0.00" arrivalSpeed="19.04" duration="20.00" routeLength="234.16" waitingTime="0.00" waitingCount="0" stopTime="0.00" timeLoss="7.77" rerouteNo="0" devices="tripinfo_a1.3" vType="myType" speedFactor="1.05" vaporized=""/>
    <tripinfo id="b1.3" depart="11.00" departLane="C1_1" departPos="4.60" departPosLat="0.00" departSpeed="0.00" departDelay="0.20" arrival="32.00" arrivalLane="Z2_0" arrivalPos="59.28" arrivalPosLat="0.00" arrivalSpeed="19.37" duration="21.00" routeLength="207.74" waitingTime="0.00" waitingCount="0" stopTime="0.00" timeLoss="6.58" rerouteNo="0" devices="tripinfo_b1.3" vType="myType" speedFactor="0.98" vaporized=""/>
    <tripinfo id="a1.2" depart="6.00" departLane="Z1_1" departPos="4.60" departPosLat="0.00" departSpeed="0.00" departDelay="4.00" arrival="33.00" arrivalLane="Z2_1" arrivalPos="59.28" arrivalPosLat="0.00" arrivalSpeed="19.17" duration="27.00" routeLength="234.16" waitingTime="0.00" waitingCount="0" stopTime="0.00" timeLoss="14.69" rerouteNo="0" devices="tripinfo_a1.2" vType="myType" speedFactor="0.94" vaporized=""/>
    <tripinfo id="b1.4" depart="15.00" departLane="C1_1" departPos="4.60" departPosLat="0.00" departSpeed="0.00" departDelay="0.60" arrival="34.00" arrivalLane="Z2_0" arrivalPos="59.28" arrivalPosLat="0.00" arrivalSpeed="19.71" duration="19.00" routeLength="207.74" waitingTime="0.00" waitingCount="0" stopTime="0.00" timeLoss="5.04" rerouteNo="0" devices="tripinfo_b1.4" vType="myType" speedFactor="1.00" vaporized=""/>
    <tripinfo id="b2.4" depart="15.00" departLane="C1_0" departPos="4.60" departPosLat="0.00" departSpeed="0.00" departDelay="0.60" arrival="34.00" arrivalLane="C2_0" arrivalPos="45.04" arrivalPosLat="0.00" arrivalSpeed="13.39" duration="19.00" routeLength="193.50" waitingTime="0.00" waitingCount="0" stopTime="0.00" timeLoss="4.16" rerouteNo="0" devices="tripinfo_b2.4" vType="myType" speedFactor="1.00" vaporized=""/>
    <tripinfo id="a1_1.4" depart="14.00" departLane="Z1_2" departPos="4.60" departPosLat="0.00" departSpeed="0.00" departDelay="10.40" arrival="35.00" arrivalLane="Z2_1" arrivalPos="59.28" arrivalPosLat="0.00" arrivalSpeed="19.23" duration="21.00" routeLength="234.16" waitingTime="0.00" waitingCount="0" stopTime="0.00" timeLoss="8.78" rerouteNo="0" devices="tripinfo_a1_1.4" vType="myType" speedFactor="1.00" vaporized=""/>
    <tripinfo id="a1.4" depart="14.00" departLane="Z1_1" departPos="4.60" departPosLat="0.00" departSpeed="0.00" departDelay="10.00" arrival="37.00" arrivalLane="Z2_1" arrivalPos="59.28" arrivalPosLat="0.00" arrivalSpeed="19.39" duration="23.00" routeLength="234.16" waitingTime="0.00" waitingCount="0" stopTime="0.00" timeLoss="10.73" rerouteNo="0" devices="tripinfo_a1.4" vType="myType" speedFactor="1.06" vaporized=""/>
    <tripinfo id="a2.3" depart="11.00" departLane="Z1_0" departPos="4.60" departPosLat="0.00" departSpeed="0.00" departDelay="7.40" arrival="37.00" arrivalLane="C2_1" arrivalPos="45.04" arrivalPosLat="0.00" arrivalSpeed="12.94" duration="26.00" routeLength="219.92" waitingTime="0.00" waitingCount="0" stopTime="0.00" timeLoss="13.03" rerouteNo="0" devices="tripinfo_a2.3" vType="myType" speedFactor="0.96" vaporized=""/>
    <tripinfo id="b2.5" depart="18.00" departLane="C1_0" departPos="4.60" departPosLat="0.00" departSpeed="0.00" departDelay="0.00" arrival="38.00" arrivalLane="C2_0" arrivalPos="45.04" arrivalPosLat="0.00" arrivalSpeed="12.75" duration="20.00" routeLength="193.50" waitingTime="0.00" waitingCount="0" stopTime="0.00" timeLoss="5.16" rerouteNo="0" devices="tripinfo_b2.5" vType="myType" speedFactor="0.96" vaporized=""/>
    <tripinfo id="a1.5" depart="17.00" departLane="Z1_1" departPos="4.60" departPosLat="0.00" departSpeed="0.00" departDelay="12.00" arrival="39.00" arrivalLane="Z2_1" arrivalPos="59.28" arrivalPosLat="0.00" arrivalSpeed="18.99" duration="22.00" routeLength="234.16" waitingTime="0.00" waitingCount="0" stopTime="0.00" timeLoss="9.82" rerouteNo="0" devices="tripinfo_a1.5" vType="myType" speedFactor="0.97" vaporized=""/>
    <tripinfo id="b1.5" depart="18.00" departLane="C1_1" departPos="4.60" departPosLat="0.00" departSpeed="0.00" departDelay="0.00" arrival="39.00" arrivalLane="Z2_0" arrivalPos="59.28" arrivalPosLat="0.00" arrivalSpeed="18.84" duration="21.00" routeLength="207.74" waitingTime="0.00" waitingCount="0" stopTime="0.00" timeLoss="6.32" rerouteNo="0" devices="tripinfo_b1.5" vType="myType" speedFactor="0.95" vaporized=""/>
    <tripinfo id="a1_1.5" depart="17.00" departLane="Z1_2" departPos="4.60" departPosLat="0.00" departSpeed="0.00" departDelay="12.50" arrival="41.00" arrivalLane="Z2_1" arrivalPos="59.28" arrivalPosLat="0.00" arrivalSpeed="19.49" duration="24.00" routeLength="234.16" waitingTime="0.00" waitingCount="0" stopTime="0.00" timeLoss="11.74" rerouteNo="0" devices="tripinfo_a1_1.5" vType="myType" speedFactor="1.08" vaporized=""/>
    <tripinfo id="a2.4" depart="14.00" departLane="Z1_0" departPos="4.60" departPosLat="0.00" departSpeed="0.00" departDelay="9.20" arrival="41.00" arrivalLane="C2_1" arrivalPos="45.04" arrivalPosLat="0.00" arrivalSpeed="13.97" duration="27.00" routeLength="219.92" waitingTime="0.00" waitingCount="0" stopTime="0.00" timeLoss="14.65" rerouteNo="0" devices="tripinfo_a2.4" vType="myType" speedFactor="1.01" vaporized=""/>
    <tripinfo id="b2.6" depart="22.00" departLane="C1_0" departPos="4.60" departPosLat="0.00" departSpeed="0.00" departDelay="0.40" arrival="42.00" arrivalLane="C2_0" arrivalPos="45.04" arrivalPosLat="0.00" arrivalSpeed="14.05" duration="20.00" routeLength="193.50" waitingTime="0.00" waitingCount="0" stopTime="0.00" timeLoss="5.34" rerouteNo="0" devices="tripinfo_b2.6" vType="myType" speedFactor="1.02" vaporized=""/>
    <tripinfo id="a1_1.6" depart="21.00" departLane="Z1_2" departPos="4.60" departPosLat="0.00" departSpeed="0.00" departDelay="15.60" arrival="43.00" arrivalLane="Z2_1" arrivalPos="59.28" arrivalPosLat="0.00" arrivalSpeed="19.66" duration="22.00" routeLength="234.16" waitingTime="0.00" waitingCount="0" stopTime="0.00" timeLoss="9.68" rerouteNo="0" devices="tripinfo_a1_1.6" vType="myType" speedFactor="0.99" vaporized=""/>
    <tripinfo id="b1.6" depart="22.00" departLane="C1_1" departPos="4.60" departPosLat="0.00" departSpeed="0.00" departDelay="0.40" arrival="44.00" arrivalLane="Z2_0" arrivalPos="59.28" arrivalPosLat="0.00" arrivalSpeed="19.17" duration="22.00" routeLength="207.74" waitingTime="0.00" waitingCount="0" stopTime="0.00" timeLoss="7.42" rerouteNo="0" devices="tripinfo_b1.6" vType="myType" speedFactor="1.04" vaporized=""/>
    <tripinfo id="a1.6" depart="20.00" departLane="Z1_1" departPos="4.60" departPosLat="0.00" departSpeed="0.00" departDelay="14.00" arrival="46.00" arrivalLane="Z2_1" arrivalPos="59.28" arrivalPosLat="0.00" arrivalSpeed="19.01" duration="26.00" routeLength="234.16" waitingTime="0.00" waitingCount="0" stopTime="0.00" timeLoss="13.53" rerouteNo="0" devices="tripinfo_a1.6" vType="myType" speedFactor="1.01" vaporized=""/>
    <tripinfo id="a2.5" depart="19.00" departLane="Z1_0" departPos="4.60" departPosLat="0.00" departSpeed="0.00" departDelay="13.00" arrival="46.00" arrivalLane="C2_1" arrivalPos="45.04" arrivalPosLat="0.00" arrivalSpeed="12.65" duration="27.00" routeLength="219.92" waitingTime="1.00" waitingCount="1" stopTime="0.00" timeLoss="14.52" rerouteNo="0" devices="tripinfo_a2.5" vType="myType" speedFactor="0.94" vaporized=""/>
    <tripinfo id="b2.7" depart="26.00" departLane="C1_0" departPos="4.60" departPosLat="0.00" departSpeed="0.00" departDelay="0.80" arrival="46.00" arrivalLane="C2_0" arrivalPos="45.04" arrivalPosLat="0.00" arrivalSpeed="12.78" duration="20.00" routeLength="193.50" waitingTime="0.00" waitingCount="0" stopTime="0.00" timeLoss="5.12" rerouteNo="0" devices="tripinfo_b2.7" vType="myType" speedFactor="0.96" vaporized=""/>
    <tripinfo id="a1.7" depart="24.00" departLane="Z1_1" departPos="4.60" departPosLat="0.00" departSpeed="0.00" departDelay="17.00" arrival="48.00" arrivalLane="Z2_1" arrivalPos="59.28" arrivalPosLat="0.00" arrivalSpeed="19.90" duration="24.00" routeLength="234.16" waitingTime="1.00" waitingCount="1" stopTime="0.00" timeLoss="11.64" rerouteNo="0" devices="tripinfo_a1.7" vType="myType" speedFactor="0.91" vaporized=""/>
    <tripinfo id="b1.7" depart="26.00" departLane="C1_1" departPos="4.60" departPosLat="0.00" departSpeed="0.00" departDelay="0.80" arrival="48.00" arrivalLane="Z2_0" arrivalPos="59.28" arrivalPosLat="0.00" arrivalSpeed="19.38" duration="22.00" routeLength="207.74" waitingTime="0.00" waitingCount="0" stopTime="0.00" timeLoss="7.25" rerouteNo="0" devices="tripinfo_b1.7" vType="myType" speedFactor="0.92" vaporized=""/>
    <tripinfo id="b2.8" depart="29.00" departLane="C1_0" departPos="4.60" departPosLat="0.00" departSpeed="0.00" departDelay="0.20" arrival="48.00" arrivalLane="C2_0" arrivalPos="45.04" arrivalPosLat="0.00" arrivalSpeed="13.39" duration="19.00" routeLength="193.50" waitingTime="0.00" waitingCount="0" stopTime="0.00" timeLoss="4.90" rerouteNo="0" devices="tripinfo_b2.8" vType="myType" speedFactor="1.04" vaporized=""/>
    <tripinfo id="a1_1.7" depart="24.00" departLane="Z1_2" departPos="4.60" departPosLat="0.00" departSpeed="0.00" departDelay="17.70" arrival="50.00" arrivalLane="Z2_1" arrivalPos="59.28" arrivalPosLat="0.00" arrivalSpeed="19.70" duration="26.00" routeLength="234.16" waitingTime="0.00" waitingCount="0" stopTime="0.00" timeLoss="13.82" rerouteNo="0" devices="tripinfo_a1_1.7" vType="myType" speedFactor="0.94" vaporized=""/>
    <tripinfo id="b1.8" depart="29.00" departLane="C1_1" departPos="4.60" departPosLat="0.00" departSpeed="0.00" departDelay="0.20" arrival="50.00" arrivalLane="Z2_0" arrivalPos="59.28" arrivalPosLat="0.00" arrivalSpeed="19.45" duration="21.00" routeLength="207.74" waitingTime="0.00" waitingCount="0" stopTime="0.00" timeLoss="6.57" rerouteNo="0" devices="tripinfo_b1.8" vType="myType" speedFactor="0.95" vaporized=""/>
    <tripinfo id="a1_1.8" depart="28.00" departLane="Z1_2" departPos="4.60" departPosLat="0.00" departSpeed="0.00" departDelay="20.80" arrival="52.00" arrivalLane="Z2_1" arrivalPos="59.28" arrivalPosLat="0.00" arrivalSpeed="19.77" duration="24.00" routeLength="234.16" waitingTime="0.00" waitingCount="0" stopTime="0.00" timeLoss="12.07" rerouteNo="0" devices="tripinfo_a1_1.8" vType="myType" speedFactor="0.97" vaporized=""/>
    <tripinfo id="b2.9" depart="33.00" departLane="C1_0" departPos="4.60" departPosLat="0.00" departSpeed="0.00" departDelay="0.60" arrival="53.00" arrivalLane="C2_0" arrivalPos="45.04" arrivalPosLat="0.00" arrivalSpeed="13.64" duration="20.00" routeLength="193.50" waitingTime="0.00" waitingCount="0" stopTime="0.00" timeLoss="5.16" rerouteNo="0" devices="tripinfo_b2.9" vType="myType" speedFactor="1.00" vaporized=""/>
    <tripinfo id="a2.6" depart="23.00" departLane="Z1_0" departPos="4.60" departPosLat="0.00" departSpeed="0.00" departDelay="15.80" arrival="54.00" arrivalLane="C2_1" arrivalPos="45.04" arrivalPosLat="0.00" arrivalSpeed="13.54" duration="31.00" routeLength="219.92" waitingTime="0.00" waitingCount="0" stopTime="0.00" timeLoss="18.66" rerouteNo="0" devices="tripinfo_a2.6" vType="myType" speedFactor="1.07" vaporized=""/>
    <tripinfo id="a1_1.9" depart="32.00" departLane="Z1_2" departPos="4.60" departPosLat="0.00" departSpeed="0.00" departDelay="23.90" arrival="54.00" arrivalLane="Z2_1" arrivalPos="59.28" arrivalPosLat="0.00" arrivalSpeed="19.24" duration="22.00" routeLength="234.16" waitingTime="0.00" waitingCount="0" stopTime="0.00" timeLoss="10.04" rerouteNo="0" devices="tripinfo_a1_1.9" vType="myType" speedFactor="1.00" vaporized=""/>
    <tripinfo id="b2.10" depart="36.00" departLane="C1_0" departPos="4.60" departPosLat="0.00" departSpeed="0.00" departDelay="0.00" arrival="56.00" arrivalLane="C2_0" arrivalPos="45.04" arrivalPosLat="0.00" arrivalSpeed="14.04" duration="20.00" routeLength="193.50" waitingTime="0.00" waitingCount="0" stopTime="0.00" timeLoss="5.00" rerouteNo="0" devices="tripinfo_b2.10" vType="myType" speedFactor="1.02" vaporized=""/>
    <tripinfo id="a2.7" depart="26.00" departLane="Z1_0" departPos="4.60" departPosLat="0.00" departSpeed="0.00" departDelay="17.60" arrival="57.00" arrivalLane="C2_1" arrivalPos="45.04" arrivalPosLat="0.00" arrivalSpeed="13.30" duration="31.00" routeLength="219.92" waitingTime="0.00" waitingCount="0" stopTime="0.00" timeLoss="18.57" rerouteNo="0" devices="tripinfo_a2.7" vType="myType" speedFactor="1.00" vaporized=""/>
    <tripinfo id="a1.9" depart="31.00" departLane="Z1_1" departPos="4.60" departPosLat="0.00" departSpeed="0.00" departDelay="22.00" arrival="59.00" arrivalLane="Z2_1" arrivalPos="59.28" arrivalPosLat="0.00" arrivalSpeed="19.26" duration="28.00" routeLength="234.16" waitingTime="0.00" waitingCount="0" stopTime="0.00" timeLoss="16.26" rerouteNo="0" devices="tripinfo_a1.9" vType="myType" speedFactor="1.08" vaporized=""/>
    <tripinfo id="b1.9" depart="33.00" departLane="C1_1" departPos="4.60" departPosLat="0.00" departSpeed="0.00" departDelay="0.60" arrival="59.00" arrivalLane="Z2_0" arrivalPos="59.28" arrivalPosLat="0.00" arrivalSpeed="19.84" duration="26.00" routeLength="207.74" waitingTime="2.00" waitingCount="1" stopTime="0.00" timeLoss="11.84" rerouteNo="0" devices="tripinfo_b1.9" vType="myType" speedFactor="1.00" vaporized=""/>
    <tripinfo id="b2.11" depart="40.00" departLane="C1_0" departPos="4.60" departPosLat="0.00" departSpeed="0.00" departDelay="0.40" arrival="60.00" arrivalLane="C2_0" arrivalPos="45.04" arrivalPosLat="0.00" arrivalSpeed="13.51" duration="20.00" routeLength="193.50" waitingTime="0.00" waitingCount="0" stopTime="0.00" timeLoss="5.64" rerouteNo="0" devices="tripinfo_b2.11" vType="myType" speedFactor="1.06" vaporized=""/>
    <tripinfo id="a1.10" depart="35.00" departLane="Z1_1" departPos="4.60" departPosLat="0.00" departSpeed="0.00" departDelay="25.00" arrival="61.00" arrivalLane="Z2_1" arrivalPos="59.28" arrivalPosLat="0.00" arrivalSpeed="19.94" duration="26.00" routeLength="234.16" waitingTime="0.00" waitingCount="0" stopTime="0.00" timeLoss="14.02" rerouteNo="0" devices="tripinfo_a1.10" vType="myType" speedFactor="1.01" vaporized=""/>
    <tripinfo id="a2.8" depart="29.00" departLane="Z1_0" departPos="4.60" departPosLat="0.00" departSpeed="0.00" departDelay="19.40" arrival="62.00" arrivalLane="C2_1" arrivalPos="45.04" arrivalPosLat="0.00" arrivalSpeed="14.54" duration="33.00" routeLength="219.92" waitingTime="0.00" waitingCount="0" stopTime="0.00" timeLoss="20.72" rerouteNo="0" devices="tripinfo_a2.8" vType="myType" speedFactor="1.09" vaporized=""/>
    <tripinfo id="b2.12" depart="44.00" departLane="C1_0" departPos="4.60" departPosLat="0.00" departSpeed="0.00" departDelay="0.80" arrival="63.00" arrivalLane="C2_0" arrivalPos="45.04" arrivalPosLat="0.00" arrivalSpeed="14.75" duration="19.00" routeLength="193.50" waitingTime="0.00" waitingCount="0" stopTime="0.00" timeLoss="5.12" rerouteNo="0" devices="tripinfo_b2.12" vType="myType" speedFactor="1.09" vaporized=""/>
    <tripinfo id="a1.8" depart="28.00" departLane="Z1_1" departPos="4.60" departPosLat="0.00" departSpeed="0.00" departDelay="20.00" arrival="64.00" arrivalLane="Z2_0" arrivalPos="59.28" arrivalPosLat="0.00" arrivalSpeed="19.96" duration="36.00" routeLength="234.16" waitingTime="0.00" waitingCount="0" stopTime="0.00" timeLoss="23.42" rerouteNo="0" devices="tripinfo_a1.8" vType="myType" speedFactor="0.96" vaporized=""/>
    <tripinfo id="a1_1.10" depart="36.00" departLane="Z1_2" departPos="4.60" departPosLat="0.00" departSpeed="0.00" departDelay="27.00" arrival="64.00" arrivalLane="Z2_1" arrivalPos="59.28" arrivalPosLat="0.00" arrivalSpeed="19.35" duration="28.00" routeLength="234.16" waitingTime="0.00" waitingCount="0" stopTime="0.00" timeLoss="15.38" rerouteNo="0" devices="tripinfo_a1_1.10" vType="myType" speedFactor="1.09" vaporized=""/>
    <tripinfo id="a1_1.11" depart="40.00" departLane="Z1_2" departPos="4.60" departPosLat="0.00" departSpeed="0.00" departDelay="30.10" arrival="66.00" arrivalLane="Z2_1" arrivalPos="59.28" arrivalPosLat="0.00" arrivalSpeed="19.51" duration="26.00" routeLength="234.16" waitingTime="0.00" waitingCount="0" stopTime="0.00" timeLoss="13.65" rerouteNo="0" devices="tripinfo_a1_1.11" vType="myType" speedFactor="0.99" vaporized=""/>
    <tripinfo id="b1.10" depart="36.00" departLane="C1_1" departPos="4.60" departPosLat="0.00" departSpeed="0.00" departDelay="0.00" arrival="67.00" arrivalLane="Z2_0" arrivalPos="59.28" arrivalPosLat="0.00" arrivalSpeed="17.94" duration="31.00" routeLength="207.74" waitingTime="1.00" waitingCount="1" stopTime="0.00" timeLoss="16.91" rerouteNo="0" devices="tripinfo_b1.10" vType="myType" speedFactor="1.00" vaporized=""/>
    <tripinfo id="b2.13" depart="47.00" departLane="C1_0" departPos="4.60" departPosLat="0.00" departSpeed="0.00" departDelay="0.20" arrival="67.00" arrivalLane="C2_0" arrivalPos="45.04" arrivalPosLat="0.00" arrivalSpeed="13.30" duration="20.00" routeLength="193.50" waitingTime="0.00" waitingCount="0" stopTime="0.00" timeLoss="4.90" rerouteNo="0" devices="tripinfo_b2.13" vType="myType" speedFactor="0.99" vaporized=""/>
    <tripinfo id="a1_1.12" depart="44.00" departLane="Z1_2" departPos="4.60" departPosLat="0.00" departSpeed="0.00" departDelay="33.20" arrival="68.00" arrivalLane="Z2_1" arrivalPos="59.28" arrivalPosLat="0.00" arrivalSpeed="18.81" duration="24.00" routeLength="234.16" waitingTime="0.00" waitingCount="0" stopTime="0.00" timeLoss="11.66" rerouteNo="0" devices="tripinfo_a1_1.12" vType="myType" speedFactor="0.95" vaporized=""/>
    <tripinfo id="b1.11" depart="40.00" departLane="C1_1" departPos="4.60" departPosLat="0.00" departSpeed="0.00" departDelay="0.40" arrival="69.00" arrivalLane="Z2_0" arrivalPos="59.28" arrivalPosLat="0.00" arrivalSpeed="19.20" duration="29.00" routeLength="207.74" waitingTime="0.00" waitingCount="0" stopTime="0.00" timeLoss="14.79" rerouteNo="0" devices="tripinfo_b1.11" vType="myType" speedFactor="0.97" vaporized=""/>
    <tripinfo id="a1_1.13" depart="49.00" departLane="Z1_2" departPos="4.60" departPosLat="0.00" departSpeed="0.00" departDelay="37.30" arrival="70.00" arrivalLane="Z2_1" arrivalPos="59.28" arrivalPosLat="0.00" arrivalSpeed="18.83" duration="21.00" routeLength="234.16" waitingTime="0.00" waitingCount="0" stopTime="0.00" timeLoss="8.65" rerouteNo="0" devices="tripinfo_a1_1.13" vType="myType" speedFactor="1.02" vaporized=""/>
    <tripinfo id="b2.14" depart="51.00" departLane="C1_0" departPos="4.60" departPosLat="0.00" departSpeed="0.00" departDelay="0.60" arrival="71.00" arrivalLane="C2_0" arrivalPos="45.04" arrivalPosLat="0.00" arrivalSpeed="13.23" duration="20.00" routeLength="193.50" waitingTime="0.00" waitingCount="0" stopTime="0.00" timeLoss="5.41" rerouteNo="0" devices="tripinfo_b2.14" vType="myType" speedFactor="1.01" vaporized=""/>
    <tripinfo id="a2.9" depart="32.00" departLane="Z1_0" departPos="4.60" departPosLat="0.00" departSpeed="0.00" departDelay="21.20" arrival="72.00" arrivalLane="C2_1" arrivalPos="45.04" arrivalPosLat="0.00" arrivalSpeed="13.50" duration="40.00" routeLength="219.92" waitingTime="1.00" waitingCount="1" stopTime="0.00" timeLoss="26.97" rerouteNo="0" devices="tripinfo_a2.9" vType="myType" speedFactor="1.02" vaporized=""/>
    <tripinfo id="a1_1.14" depart="53.00" departLane="Z1_2" departPos="4.60" departPosLat="0.00" departSpeed="0.00" departDelay="40.40" arrival="72.00" arrivalLane="Z2_1" arrivalPos="59.28" arrivalPosLat="0.00" arrivalSpeed="19.77" duration="19.00" routeLength="234.16" waitingTime="0.00" waitingCount="0" stopTime="0.00" timeLoss="6.52" rerouteNo="0" devices="tripinfo_a1_1.14" vType="myType" speedFactor="0.95" vaporized=""/>
